 
             +---------------------------------------------------+
             |                                                   |
             |                   WANNIER90                       |
             |                                                   |
             +---------------------------------------------------+
             |                                                   |
             |        Welcome to the Maximally-Localized         |
             |        Generalized Wannier Functions code         |
             |            http://www.wannier.org                 |
             |                                                   |
             |                                                   |
             |  Wannier90 Developer Group:                       |
             |    Giovanni Pizzi    (EPFL)                       |
             |    Valerio Vitale    (Cambridge)                  |
             |    David Vanderbilt  (Rutgers University)         |
             |    Nicola Marzari    (EPFL)                       |
             |    Ivo Souza         (Universidad del Pais Vasco) |
             |    Arash A. Mostofi  (Imperial College London)    |
             |    Jonathan R. Yates (University of Oxford)       |
             |                                                   |
             |  For the full list of Wannier90 3.x authors,      |
             |  please check the code documentation and the      |
             |  README on the GitHub page of the code            |
             |                                                   |
             |                                                   |
             |  Please cite                                      |
             |                                                   |
             |  [ref] "Wannier90 as a community code:            |
             |        new features and applications",            |
             |        G. Pizzi et al., J. Phys. Cond. Matt. 32,  |
             |        165902 (2020).                             |
             |        http://doi.org/10.1088/1361-648X/ab51ff    |
             |                                                   |
             |  in any publications arising from the use of      |
             |  this code. For the method please cite            |
             |                                                   |
             |  [ref] "Maximally Localized Generalised Wannier   |
             |         Functions for Composite Energy Bands"     |
             |         N. Marzari and D. Vanderbilt              |
             |         Phys. Rev. B 56 12847 (1997)              |
             |                                                   |
             |  [ref] "Maximally Localized Wannier Functions     |
             |         for Entangled Energy Bands"               |
             |         I. Souza, N. Marzari and D. Vanderbilt    |
             |         Phys. Rev. B 65 035109 (2001)             |
             |                                                   |
             |                                                   |
             | Copyright (c) 1996-2020                           |
             |        The Wannier90 Developer Group and          |
             |        individual contributors                    |
             |                                                   |
             |      Release: 3.1.0        5th March    2020      |
             |                                                   |
             | This program is free software; you can            |
             | redistribute it and/or modify it under the terms  |
             | of the GNU General Public License as published by |
             | the Free Software Foundation; either version 2 of |
             | the License, or (at your option) any later version|
             |                                                   |
             | This program is distributed in the hope that it   |
             | will be useful, but WITHOUT ANY WARRANTY; without |
             | even the implied warranty of MERCHANTABILITY or   |
             | FITNESS FOR A PARTICULAR PURPOSE. See the GNU     |
             | General Public License for more details.          |
             |                                                   |
             | You should have received a copy of the GNU General|
             | Public License along with this program; if not,   |
             | write to the Free Software Foundation, Inc.,      |
             | 675 Mass Ave, Cambridge, MA 02139, USA.           |
             |                                                   |
             +---------------------------------------------------+
             |    Execution started on 12Nov2021 at 13:06:26     |
             +---------------------------------------------------+
 
 ******************************************************************************
 * -> Using CODATA 2006 constant values                                       *
 *    (http://physics.nist.gov/cuu/Constants/index.html)                      *
 * -> Using Bohr value from CODATA                                            *
 ******************************************************************************
 

 Running in parallel on   8 CPUs

 
                                    ------
                                    SYSTEM
                                    ------
 
                              Lattice Vectors (Ang)
                    a_1     0.000000   2.815920   2.815920
                    a_2     2.815920   0.000000   2.815920
                    a_3     2.815920   2.815920   0.000000
 
                   Unit Cell Volume:      44.65714  (Ang^3)
 
                        Reciprocal-Space Vectors (Ang^-1)
                    b_1    -1.115654   1.115654   1.115654
                    b_2     1.115654  -1.115654   1.115654
                    b_3     1.115654   1.115654  -1.115654
  
 *----------------------------------------------------------------------------*
 |   Site       Fractional Coordinate          Cartesian Coordinate (Ang)     |
 +----------------------------------------------------------------------------+
 | Ca   1   0.00000   0.00000   0.00000   |    0.00000   0.00000   0.00000    |
 | S    1  -0.50000   0.50000   0.50000   |    2.81592   0.00000   0.00000    |
 *----------------------------------------------------------------------------*
                                ------------
                                K-POINT GRID
                                ------------
  
             Grid size = 10 x 10 x 10      Total points = 1000
  
  
 *---------------------------------- MAIN ------------------------------------*
 |  Number of Wannier Functions               :                10             |
 |  Number of Objective Wannier Functions     :                10             |
 |  Number of input Bloch states              :                24             |
 |  Output verbosity (1=low, 5=high)          :                 1             |
 |  Timing Level (1=low, 5=high)              :                 1             |
 |  Optimisation (0=memory, 3=speed)          :                 3             |
 |  Length Unit                               :               Ang             |
 |  Post-processing setup (write *.nnkp)      :                 F             |
 |  Using Gamma-only branch of algorithms     :                 F             |
 |  Wavefunction (UNK) file-type              :       unformatted             |
 |  Wavefunction spin channel                 :                up             |
 *----------------------------------------------------------------------------*
 *------------------------------- WANNIERISE ---------------------------------*
 |  Total number of iterations                :              4000             |
 |  Number of CG steps before reset           :               200             |
 |  Trial step length for line search         :             2.000             |
 |  Convergence tolerence                     :         0.200E-06             |
 |  Convergence window                        :                 3             |
 |  Iterations between writing output         :                 1             |
 |  Iterations between backing up to disk     :               100             |
 |  Write r^2_nm to file                      :                 F             |
 |  Write xyz WF centres to file              :                 F             |
 |  Write on-site energies <0n|H|0n> to file  :                 F             |
 |  Use guiding centre to control phases      :                 F             |
 |  Use phases for initial projections        :                 F             |
 *----------------------------------------------------------------------------*
 *------------------------------- DISENTANGLE --------------------------------*
 |  Using band disentanglement                :                 T             |
 |  Total number of iterations                :              4000             |
 |  Mixing ratio                              :             0.500             |
 |  Convergence tolerence                     :         2.000E-07             |
 |  Convergence window                        :                 3             |
 *----------------------------------------------------------------------------*
 *-------------------------------- PLOTTING ----------------------------------*
 |  Plotting Wannier functions                :                 T             |
 |   Size of supercell for plotting           :     5x    5x    5             |
 |   Plotting mode (molecule or crystal)      :           crystal             |
 |   Plotting format                          :              cube             |
 |   Plot radius                              :             3.500             |
 |   Plot scale                               :             1.000             |
 *----------------------------------------------------------------------------*
 |  Plotting interpolated bandstructure       :                 T             |
 |   Number of high-symmetry points           :                 8             |
 |   Total number of points along K-path      :               193             |
 |   Output format                            :           gnuplot             |
 |   Output mode                              :               s-k             |
 *----------------------------------------------------------------------------*
 |   K-space path high symmetry points:                                       |
 |    GAMMA   0.000  0.000  0.000                                             |
 |    X       0.500  0.000  0.500                                             |
 |    U       0.625  0.250  0.625                                             |
 |    K       0.375  0.375  0.750                                             |
 |    GAMMA   0.000  0.000  0.000                                             |
 |    L       0.500  0.500  0.500                                             |
 |    W       0.500  0.250  0.750                                             |
 |    X       0.500  0.000  0.500                                             |
 *----------------------------------------------------------------------------*
 Time to read parameters        0.106 (sec)

 *---------------------------------- K-MESH ----------------------------------*
 +----------------------------------------------------------------------------+
 |                    Distance to Nearest-Neighbour Shells                    |
 |                    ------------------------------------                    |
 |          Shell             Distance (Ang^-1)          Multiplicity         |
 |          -----             -----------------          ------------         |
 |             1                   0.193237                      8            |
 |             2                   0.223131                      6            |
 |             3                   0.315555                     12            |
 |             4                   0.370021                     24            |
 |             5                   0.386474                      8            |
 |             6                   0.446262                      6            |
 |             7                   0.486302                     24            |
 |             8                   0.498936                     24            |
 |             9                   0.546557                     24            |
 |            10                   0.579711                     32            |
 |            11                   0.631109                     12            |
 |            12                   0.660030                     48            |
 |            13                   0.669392                     30            |
 |            14                   0.705602                     24            |
 |            15                   0.731583                     24            |
 |            16                   0.740041                     24            |
 |            17                   0.772948                      8            |
 |            18                   0.796736                     48            |
 |            19                   0.804510                     24            |
 |            20                   0.834879                     48            |
 |            21                   0.856950                     72            |
 |            22                   0.892523                      6            |
 |            23                   0.913202                     24            |
 |            24                   0.919992                     48            |
 |            25                   0.946664                     36            |
 |            26                   0.966185                     56            |
 |            27                   0.972605                     24            |
 |            28                   0.997871                     24            |
 |            29                   1.016409                     72            |
 |            30                   1.022514                     48            |
 |            31                   1.046576                     24            |
 |            32                   1.064266                     48            |
 |            33                   1.093113                     24            |
 |            34                   1.110062                     72            |
 |            35                   1.115654                     30            |
 |            36                   1.137748                     72            |
 +----------------------------------------------------------------------------+
 | The b-vectors are chosen automatically                                     |
 | The following shells are used:   1                                         |
 +----------------------------------------------------------------------------+
 |                        Shell   # Nearest-Neighbours                        |
 |                        -----   --------------------                        |
 |                          1               8                                 |
 +----------------------------------------------------------------------------+
 | Completeness relation is fully satisfied [Eq. (B1), PRB 56, 12847 (1997)]  |
 +----------------------------------------------------------------------------+
 |                  b_k Vectors (Ang^-1) and Weights (Ang^2)                  |
 |                  ----------------------------------------                  |
 |            No.         b_k(x)      b_k(y)      b_k(z)        w_b           |
 |            ---        --------------------------------     --------        |
 |             1         0.111565    0.111565   -0.111565    10.042708        |
 |             2         0.111565   -0.111565    0.111565    10.042708        |
 |             3        -0.111565    0.111565    0.111565    10.042708        |
 |             4         0.111565    0.111565    0.111565    10.042708        |
 |             5        -0.111565   -0.111565    0.111565    10.042708        |
 |             6        -0.111565    0.111565   -0.111565    10.042708        |
 |             7         0.111565   -0.111565   -0.111565    10.042708        |
 |             8        -0.111565   -0.111565   -0.111565    10.042708        |
 +----------------------------------------------------------------------------+
 |                           b_k Directions (Ang^-1)                          |
 |                           -----------------------                          |
 |            No.           x           y           z                         |
 |            ---        --------------------------------                     |
 |             1         0.111565    0.111565   -0.111565                     |
 |             2         0.111565   -0.111565    0.111565                     |
 |             3        -0.111565    0.111565    0.111565                     |
 |             4         0.111565    0.111565    0.111565                     |
 +----------------------------------------------------------------------------+
  
 Time to get kmesh              0.561 (sec)
 *============================================================================*
 |                              MEMORY ESTIMATE                               |
 |         Maximum RAM allocated during each phase of the calculation         |
 *============================================================================*
 |                        Disentanglement           97.75 Mb                  |
 |                            Wannierise:           37.82 Mb                  |
 |                          plot_wannier:           37.82 Mb                  |
 *----------------------------------------------------------------------------*
  
 Reading restart information from file aiida.chk :
 written on 12Nov2021 at 12:45:12 ... done

 Restarting Wannier90 from plotting routines ...

 *---------------------------------------------------------------------------*
 |                               PLOTTING                                    |
 *---------------------------------------------------------------------------*
 
 Calculating interpolated band-structure
 
 Time to calculate interpolated band structure       2.430 (sec)
 
      Wannier Function Num:    1       Maximum Im/Re Ratio =    0.000003
      Wannier Function Num:    2       Maximum Im/Re Ratio =    0.000001
      Wannier Function Num:    3       Maximum Im/Re Ratio =    0.000000
      Wannier Function Num:    4       Maximum Im/Re Ratio =    0.000001
      Wannier Function Num:    5       Maximum Im/Re Ratio =    0.000001
      Wannier Function Num:    6       Maximum Im/Re Ratio =    0.000001
      Wannier Function Num:    7       Maximum Im/Re Ratio =    0.000001
      Wannier Function Num:    8       Maximum Im/Re Ratio =    0.000000
      Wannier Function Num:    9       Maximum Im/Re Ratio =    0.000000
      Wannier Function Num:   10       Maximum Im/Re Ratio =    0.000000
  
 Time for plotting             66.318 (sec)
 Total Execution Time          67.000 (sec)

 *===========================================================================*
 |                             TIMING INFORMATION                            |
 *===========================================================================*
 |    Tag                                                Ncalls      Time (s)|
 |---------------------------------------------------------------------------|
 |kmesh: get                                        :         1         0.561|
 |plot: main                                        :         1        66.318|
 *---------------------------------------------------------------------------*
 
 All done: wannier90 exiting
