
             +---------------------------------------------------+
             |                                                   |
             |                   WANNIER90                       |
             |                                                   |
             +---------------------------------------------------+
             |                                                   |
             |        Welcome to the Maximally-Localized         |
             |        Generalized Wannier Functions code         |
             |            http://www.wannier.org                 |
             |                                                   |
             |                                                   |
             |  Wannier90 Developer Group:                       |
             |    Giovanni Pizzi    (EPFL)                       |
             |    Valerio Vitale    (Cambridge)                  |
             |    David Vanderbilt  (Rutgers University)         |
             |    Nicola Marzari    (EPFL)                       |
             |    Ivo Souza         (Universidad del Pais Vasco) |
             |    Arash A. Mostofi  (Imperial College London)    |
             |    Jonathan R. Yates (University of Oxford)       |
             |                                                   |
             |  For the full list of Wannier90 3.x authors,      |
             |  please check the code documentation and the      |
             |  README on the GitHub page of the code            |
             |                                                   |
             |                                                   |
             |  Please cite                                      |
             |                                                   |
             |  [ref] "An updated version of Wannier90:          |
             |        A Tool for Obtaining Maximally Localised   |
             |        Wannier Functions", A. A. Mostofi,         |
             |        J. R. Yates, G. Pizzi, Y. S. Lee,          |
             |        I. Souza, D. Vanderbilt and N. Marzari,    |
             |        Comput. Phys. Commun. 185, 2309 (2014)     |
             |        http://dx.doi.org/10.1016/j.cpc.2014.05.003|
             |                                                   |
             |  in any publications arising from the use of      |
             |  this code. For the method please cite            |
             |                                                   |
             |  [ref] "Maximally Localized Generalised Wannier   |
             |         Functions for Composite Energy Bands"     |
             |         N. Marzari and D. Vanderbilt              |
             |         Phys. Rev. B 56 12847 (1997)              |
             |                                                   |
             |  [ref] "Maximally Localized Wannier Functions     |
             |         for Entangled Energy Bands"               |
             |         I. Souza, N. Marzari and D. Vanderbilt    |
             |         Phys. Rev. B 65 035109 (2001)             |
             |                                                   |
             |                                                   |
             | Copyright (c) 1996-2019                           |
             |        The Wannier90 Developer Group and          |
             |        individual contributors                    |
             |                                                   |
             |      Release: 3.0.0       27th February 2019      |
             |                                                   |
             | This program is free software; you can            |
             | redistribute it and/or modify it under the terms  |
             | of the GNU General Public License as published by |
             | the Free Software Foundation; either version 2 of |
             | the License, or (at your option) any later version|
             |                                                   |
             | This program is distributed in the hope that it   |
             | will be useful, but WITHOUT ANY WARRANTY; without |
             | even the implied warranty of MERCHANTABILITY or   |
             | FITNESS FOR A PARTICULAR PURPOSE. See the GNU     |
             | General Public License for more details.          |
             |                                                   |
             | You should have received a copy of the GNU General|
             | Public License along with this program; if not,   |
             | write to the Free Software Foundation, Inc.,      |
             | 675 Mass Ave, Cambridge, MA 02139, USA.           |
             |                                                   |
             +---------------------------------------------------+
             |    Execution started on 29Nov2019 at 13:26:04     |
             +---------------------------------------------------+
 
 ******************************************************************************
 * -> Using CODATA 2006 constant values                                       *
 *    (http://physics.nist.gov/cuu/Constants/index.html)                      *
 * -> Using Bohr value from CODATA                                            *
 ******************************************************************************
 

 Running in serial (with serial executable)

                                    ------
                                    SYSTEM
                                    ------

                              Lattice Vectors (Ang)
                    a_1    -2.840000   0.000000   2.840000
                    a_2     0.000000   2.840000   2.840000
                    a_3    -2.840000   2.840000   0.000000

                   Unit Cell Volume:      45.81261  (Ang^3)

                        Reciprocal-Space Vectors (Ang^-1)
                    b_1    -1.106195  -1.106195   1.106195
                    b_2     1.106195   1.106195   1.106195
                    b_3    -1.106195   1.106195  -1.106195
  
 *----------------------------------------------------------------------------*
 |   Site       Fractional Coordinate          Cartesian Coordinate (Ang)     |
 +----------------------------------------------------------------------------+
 | Ga   1   0.00000   0.00000   0.00000   |    0.00000   0.00000   0.00000    |
 | As   1   0.25000   0.25000   0.25000   |   -1.42000   1.42000   1.42000    |
 *----------------------------------------------------------------------------*
                                ------------
                                K-POINT GRID
                                ------------
  
             Grid size =  2 x  2 x  2      Total points =    8
  
  
 *---------------------------------- MAIN ------------------------------------*
 |  Number of Wannier Functions               :                 4             |
 |  Number of Objective Wannier Functions     :                 4             |
 |  Number of input Bloch states              :                 4             |
 |  Output verbosity (1=low, 5=high)          :                 1             |
 |  Timing Level (1=low, 5=high)              :                 1             |
 |  Optimisation (0=memory, 3=speed)          :                 3             |
 |  Length Unit                               :               Ang             |
 |  Post-processing setup (write *.nnkp)      :                 F             |
 |  Using Gamma-only branch of algorithms     :                 F             |
 *----------------------------------------------------------------------------*
 *------------------------------- WANNIERISE ---------------------------------*
 |  Total number of iterations                :                12             |
 |  Number of CG steps before reset           :                 5             |
 |  Trial step length for line search         :             2.000             |
 |  Convergence tolerence                     :         0.100E-09             |
 |  Convergence window                        :                -1             |
 |  Iterations between writing output         :                 1             |
 |  Iterations between backing up to disk     :               100             |
 |  Write r^2_nm to file                      :                 F             |
 |  Write xyz WF centres to file              :                 F             |
 |  Write on-site energies <0n|H|0n> to file  :                 F             |
 |  Use guiding centre to control phases      :                 F             |
 |  Use phases for initial projections        :                 F             |
 *----------------------------------------------------------------------------*
 Time to read parameters        0.016 (sec)

 *---------------------------------- K-MESH ----------------------------------*
 +----------------------------------------------------------------------------+
 |                    Distance to Nearest-Neighbour Shells                    |
 |                    ------------------------------------                    |
 |          Shell             Distance (Ang^-1)          Multiplicity         |
 |          -----             -----------------          ------------         |
 |             1                   0.957993                      8            |
 |             2                   1.106195                      6            |
 |             3                   1.564395                     12            |
 |             4                   1.834416                     24            |
 |             5                   1.915985                      8            |
 |             6                   2.212389                      6            |
 |             7                   2.410895                     24            |
 |             8                   2.473526                     24            |
 |             9                   2.709612                     24            |
 |            10                   2.873978                     32            |
 |            11                   3.128791                     12            |
 |            12                   3.272168                     48            |
 |            13                   3.318584                     30            |
 |            14                   3.498094                     24            |
 |            15                   3.626902                     24            |
 |            16                   3.668832                     24            |
 |            17                   3.831970                      8            |
 |            18                   3.949905                     48            |
 |            19                   3.988441                     24            |
 |            20                   4.139001                     48            |
 |            21                   4.248421                     72            |
 |            22                   4.424778                      6            |
 |            23                   4.527297                     24            |
 |            24                   4.560957                     48            |
 |            25                   4.693186                     36            |
 |            26                   4.789963                     56            |
 |            27                   4.821790                     24            |
 |            28                   4.947053                     24            |
 |            29                   5.038956                     72            |
 |            30                   5.069220                     48            |
 |            31                   5.188513                     24            |
 |            32                   5.276212                     48            |
 |            33                   5.419225                     24            |
 |            34                   5.503249                     72            |
 |            35                   5.530973                     30            |
 |            36                   5.640508                     72            |
 +----------------------------------------------------------------------------+
 | The b-vectors are chosen automatically                                     |
 | The following shells are used:   1                                         |
 +----------------------------------------------------------------------------+
 |                        Shell   # Nearest-Neighbours                        |
 |                        -----   --------------------                        |
 |                          1               8                                 |
 +----------------------------------------------------------------------------+
 | Completeness relation is fully satisfied [Eq. (B1), PRB 56, 12847 (1997)]  |
 +----------------------------------------------------------------------------+
 |                  b_k Vectors (Ang^-1) and Weights (Ang^2)                  |
 |                  ----------------------------------------                  |
 |            No.         b_k(x)      b_k(y)      b_k(z)        w_b           |
 |            ---        --------------------------------     --------        |
 |             1        -0.553097    0.553097   -0.553097     0.408608        |
 |             2         0.553097    0.553097    0.553097     0.408608        |
 |             3        -0.553097   -0.553097    0.553097     0.408608        |
 |             4        -0.553097    0.553097    0.553097     0.408608        |
 |             5         0.553097   -0.553097    0.553097     0.408608        |
 |             6        -0.553097   -0.553097   -0.553097     0.408608        |
 |             7         0.553097    0.553097   -0.553097     0.408608        |
 |             8         0.553097   -0.553097   -0.553097     0.408608        |
 +----------------------------------------------------------------------------+
 |                           b_k Directions (Ang^-1)                          |
 |                           -----------------------                          |
 |            No.           x           y           z                         |
 |            ---        --------------------------------                     |
 |             1        -0.553097    0.553097   -0.553097                     |
 |             2         0.553097    0.553097    0.553097                     |
 |             3        -0.553097   -0.553097    0.553097                     |
 |             4        -0.553097    0.553097    0.553097                     |
 +----------------------------------------------------------------------------+
  
 Time to get kmesh              0.109 (sec)
 *============================================================================*
 |                              MEMORY ESTIMATE                               |
 |         Maximum RAM allocated during each phase of the calculation         |
 *============================================================================*
 |                            Wannierise:            0.06 Mb                  |
 |                          plot_wannier:            0.06 Mb                  |
 *----------------------------------------------------------------------------*
  
 Starting a new Wannier90 calculation ...


 Reading overlaps from aiida.mmn    : File Created on 18th April 2006

 Reading projections from aiida.amn : File Created on 18th April 2006

 Time to read overlaps          0.000 (sec)

 Writing checkpoint file aiida.chk... done


 *------------------------------- WANNIERISE ---------------------------------*
 +--------------------------------------------------------------------+<-- CONV
 | Iter  Delta Spread     RMS Gradient      Spread (Ang^2)      Time  |<-- CONV
 +--------------------------------------------------------------------+<-- CONV

 ------------------------------------------------------------------------------
 Initial State
  WF centre and spread    1  ( -0.866604,  1.973396,  1.973396 )     1.11712902
  WF centre and spread    2  ( -0.866604,  0.866604,  0.866604 )     1.11712902
  WF centre and spread    3  ( -1.973396,  1.973396,  0.866604 )     1.11712902
  WF centre and spread    4  ( -1.973396,  0.866604,  1.973396 )     1.11712902
  Sum of centres and spreads ( -5.680000,  5.680000,  5.680000 )     4.46851606

      0     0.447E+01     0.0000000000        4.4685160605       0.00  <-- CONV
        O_D=      0.0083192 O_OD=      0.5035960 O_TOT=      4.4685161 <-- SPRD
 ------------------------------------------------------------------------------
 Cycle:      1
  WF centre and spread    1  ( -0.866225,  1.973775,  1.973775 )     1.11664626
  WF centre and spread    2  ( -0.866225,  0.866225,  0.866225 )     1.11664626
  WF centre and spread    3  ( -1.973775,  1.973775,  0.866225 )     1.11664626
  WF centre and spread    4  ( -1.973775,  0.866225,  1.973775 )     1.11664626
  Sum of centres and spreads ( -5.680000,  5.680000,  5.680000 )     4.46658505

      1    -0.193E-02     0.0667857053        4.4665850500       0.00  <-- CONV
        O_D=      0.0080293 O_OD=      0.5019549 O_TOT=      4.4665850 <-- SPRD
 Delta: O_D= -0.2899056E-03 O_OD= -0.1641105E-02 O_TOT= -0.1931011E-02 <-- DLTA
 ------------------------------------------------------------------------------
 Cycle:      2
  WF centre and spread    1  ( -0.866225,  1.973775,  1.973775 )     1.11664626
  WF centre and spread    2  ( -0.866225,  0.866225,  0.866225 )     1.11664626
  WF centre and spread    3  ( -1.973775,  1.973775,  0.866225 )     1.11664626
  WF centre and spread    4  ( -1.973775,  0.866225,  1.973775 )     1.11664626
  Sum of centres and spreads ( -5.680000,  5.680000,  5.680000 )     4.46658505

      2    -0.893E-09     0.0000454464        4.4665850491       0.00  <-- CONV
        O_D=      0.0080295 O_OD=      0.5019547 O_TOT=      4.4665850 <-- SPRD
 Delta: O_D=  0.1843861E-06 O_OD= -0.1852795E-06 O_TOT= -0.8934329E-09 <-- DLTA
 ------------------------------------------------------------------------------
 Cycle:      3
  WF centre and spread    1  ( -0.866225,  1.973775,  1.973775 )     1.11664626
  WF centre and spread    2  ( -0.866225,  0.866225,  0.866225 )     1.11664626
  WF centre and spread    3  ( -1.973775,  1.973775,  0.866225 )     1.11664626
  WF centre and spread    4  ( -1.973775,  0.866225,  1.973775 )     1.11664626
  Sum of centres and spreads ( -5.680000,  5.680000,  5.680000 )     4.46658505

      3     0.888E-15     0.0000000005        4.4665850491       0.01  <-- CONV
        O_D=      0.0080295 O_OD=      0.5019547 O_TOT=      4.4665850 <-- SPRD
 Delta: O_D=  0.3844806E-12 O_OD= -0.3838041E-12 O_TOT=  0.8881784E-15 <-- DLTA
 ------------------------------------------------------------------------------
 Cycle:      4
  WF centre and spread    1  ( -0.866225,  1.973775,  1.973775 )     1.11664626
  WF centre and spread    2  ( -0.866225,  0.866225,  0.866225 )     1.11664626
  WF centre and spread    3  ( -1.973775,  1.973775,  0.866225 )     1.11664626
  WF centre and spread    4  ( -1.973775,  0.866225,  1.973775 )     1.11664626
  Sum of centres and spreads ( -5.680000,  5.680000,  5.680000 )     4.46658505

      4    -0.888E-15     0.0000000004        4.4665850491       0.01  <-- CONV
        O_D=      0.0080295 O_OD=      0.5019547 O_TOT=      4.4665850 <-- SPRD
 Delta: O_D=  0.3165159E-12 O_OD= -0.3173017E-12 O_TOT= -0.8881784E-15 <-- DLTA
 ------------------------------------------------------------------------------
 Cycle:      5
  WF centre and spread    1  ( -0.866225,  1.973775,  1.973775 )     1.11664626
  WF centre and spread    2  ( -0.866225,  0.866225,  0.866225 )     1.11664626
  WF centre and spread    3  ( -1.973775,  1.973775,  0.866225 )     1.11664626
  WF centre and spread    4  ( -1.973775,  0.866225,  1.973775 )     1.11664626
  Sum of centres and spreads ( -5.680000,  5.680000,  5.680000 )     4.46658505

      5     0.888E-15     0.0000000004        4.4665850491       0.01  <-- CONV
        O_D=      0.0080295 O_OD=      0.5019547 O_TOT=      4.4665850 <-- SPRD
 Delta: O_D=  0.2605346E-12 O_OD= -0.2594591E-12 O_TOT=  0.8881784E-15 <-- DLTA
 ------------------------------------------------------------------------------
 Cycle:      6
  WF centre and spread    1  ( -0.866225,  1.973775,  1.973775 )     1.11664626
  WF centre and spread    2  ( -0.866225,  0.866225,  0.866225 )     1.11664626
  WF centre and spread    3  ( -1.973775,  1.973775,  0.866225 )     1.11664626
  WF centre and spread    4  ( -1.973775,  0.866225,  1.973775 )     1.11664626
  Sum of centres and spreads ( -5.680000,  5.680000,  5.680000 )     4.46658505

      6    -0.888E-15     0.0000000003        4.4665850491       0.01  <-- CONV
        O_D=      0.0080295 O_OD=      0.5019547 O_TOT=      4.4665850 <-- SPRD
 Delta: O_D=  0.2144916E-12 O_OD= -0.2151612E-12 O_TOT= -0.8881784E-15 <-- DLTA
 ------------------------------------------------------------------------------
 Cycle:      7
  WF centre and spread    1  ( -0.866225,  1.973775,  1.973775 )     1.11664626
  WF centre and spread    2  ( -0.866225,  0.866225,  0.866225 )     1.11664626
  WF centre and spread    3  ( -1.973775,  1.973775,  0.866225 )     1.11664626
  WF centre and spread    4  ( -1.973775,  0.866225,  1.973775 )     1.11664626
  Sum of centres and spreads ( -5.680000,  5.680000,  5.680000 )     4.46658505

      7     0.888E-15     0.0000000002        4.4665850491       0.01  <-- CONV
        O_D=      0.0080295 O_OD=      0.5019547 O_TOT=      4.4665850 <-- SPRD
 Delta: O_D=  0.1765723E-12 O_OD= -0.1761924E-12 O_TOT=  0.8881784E-15 <-- DLTA
 ------------------------------------------------------------------------------
 Cycle:      8
  WF centre and spread    1  ( -0.866225,  1.973775,  1.973775 )     1.11664626
  WF centre and spread    2  ( -0.866225,  0.866225,  0.866225 )     1.11664626
  WF centre and spread    3  ( -1.973775,  1.973775,  0.866225 )     1.11664626
  WF centre and spread    4  ( -1.973775,  0.866225,  1.973775 )     1.11664626
  Sum of centres and spreads ( -5.680000,  5.680000,  5.680000 )     4.46658505

      8    -0.178E-14     0.0000000002        4.4665850491       0.01  <-- CONV
        O_D=      0.0080295 O_OD=      0.5019547 O_TOT=      4.4665850 <-- SPRD
 Delta: O_D=  0.1453213E-12 O_OD= -0.1464384E-12 O_TOT= -0.1776357E-14 <-- DLTA
 ------------------------------------------------------------------------------
 Cycle:      9
  WF centre and spread    1  ( -0.866225,  1.973775,  1.973775 )     1.11664626
  WF centre and spread    2  ( -0.866225,  0.866225,  0.866225 )     1.11664626
  WF centre and spread    3  ( -1.973775,  1.973775,  0.866225 )     1.11664626
  WF centre and spread    4  ( -1.973775,  0.866225,  1.973775 )     1.11664626
  Sum of centres and spreads ( -5.680000,  5.680000,  5.680000 )     4.46658505

      9     0.888E-15     0.0000000002        4.4665850491       0.01  <-- CONV
        O_D=      0.0080295 O_OD=      0.5019547 O_TOT=      4.4665850 <-- SPRD
 Delta: O_D= -0.1040834E-16 O_OD=  0.4440892E-15 O_TOT=  0.8881784E-15 <-- DLTA
 ------------------------------------------------------------------------------
 Cycle:     10
  WF centre and spread    1  ( -0.866225,  1.973775,  1.973775 )     1.11664626
  WF centre and spread    2  ( -0.866225,  0.866225,  0.866225 )     1.11664626
  WF centre and spread    3  ( -1.973775,  1.973775,  0.866225 )     1.11664626
  WF centre and spread    4  ( -1.973775,  0.866225,  1.973775 )     1.11664626
  Sum of centres and spreads ( -5.680000,  5.680000,  5.680000 )     4.46658505

     10    -0.888E-15     0.0000000002        4.4665850491       0.01  <-- CONV
        O_D=      0.0080295 O_OD=      0.5019547 O_TOT=      4.4665850 <-- SPRD
 Delta: O_D=  0.1196682E-12 O_OD= -0.1202372E-12 O_TOT= -0.8881784E-15 <-- DLTA
 ------------------------------------------------------------------------------
 Cycle:     11
  WF centre and spread    1  ( -0.866225,  1.973775,  1.973775 )     1.11664626
  WF centre and spread    2  ( -0.866225,  0.866225,  0.866225 )     1.11664626
  WF centre and spread    3  ( -1.973775,  1.973775,  0.866225 )     1.11664626
  WF centre and spread    4  ( -1.973775,  0.866225,  1.973775 )     1.11664626
  Sum of centres and spreads ( -5.680000,  5.680000,  5.680000 )     4.46658505

     11     0.000E+00     0.0000000001        4.4665850491       0.01  <-- CONV
        O_D=      0.0080295 O_OD=      0.5019547 O_TOT=      4.4665850 <-- SPRD
 Delta: O_D=  0.9849760E-13 O_OD= -0.9869883E-13 O_TOT=  0.0000000E+00 <-- DLTA
 ------------------------------------------------------------------------------
 Cycle:     12
  WF centre and spread    1  ( -0.866225,  1.973775,  1.973775 )     1.11664626
  WF centre and spread    2  ( -0.866225,  0.866225,  0.866225 )     1.11664626
  WF centre and spread    3  ( -1.973775,  1.973775,  0.866225 )     1.11664626
  WF centre and spread    4  ( -1.973775,  0.866225,  1.973775 )     1.11664626
  Sum of centres and spreads ( -5.680000,  5.680000,  5.680000 )     4.46658505

     12     0.000E+00     0.0000000001        4.4665850491       0.01  <-- CONV
        O_D=      0.0080295 O_OD=      0.5019547 O_TOT=      4.4665850 <-- SPRD
 Delta: O_D=  0.8108098E-13 O_OD= -0.8071321E-13 O_TOT=  0.0000000E+00 <-- DLTA
 ------------------------------------------------------------------------------
 Final State
  WF centre and spread    1  ( -0.866225,  1.973775,  1.973775 )     1.11664626
  WF centre and spread    2  ( -0.866225,  0.866225,  0.866225 )     1.11664626
  WF centre and spread    3  ( -1.973775,  1.973775,  0.866225 )     1.11664626
  WF centre and spread    4  ( -1.973775,  0.866225,  1.973775 )     1.11664626
  Sum of centres and spreads ( -5.680000,  5.680000,  5.680000 )     4.46658505

         Spreads (Ang^2)       Omega I      =     3.956600819
        ================       Omega D      =     0.008029517
                               Omega OD     =     0.501954713
    Final Spread (Ang^2)       Omega Total  =     4.466585049
 ------------------------------------------------------------------------------
 Time for wannierise            0.016 (sec)

 Writing checkpoint file aiida.chk... done

 Time for plotting              0.000 (sec)
 Total Execution Time           0.141 (sec)

 *===========================================================================*
 |                             TIMING INFORMATION                            |
 *===========================================================================*
 |    Tag                                                Ncalls      Time (s)|
 |---------------------------------------------------------------------------|
 |kmesh: get                                        :         1         0.109|
 |overlap: allocate                                 :         1         0.000|
 |overlap: read                                     :         1         0.000|
 |wann: main                                        :         1         0.016|
 |plot: main                                        :         1         0.000|
 *---------------------------------------------------------------------------*

 All done: wannier90 exiting
