 
             +---------------------------------------------------+
             |                                                   |
             |                   WANNIER90                       |
             |                                                   |
             +---------------------------------------------------+
             |                                                   |
             |        Welcome to the Maximally-Localized         |
             |        Generalized Wannier Functions code         |
             |            http://www.wannier.org                 |
             |                                                   |
             |                                                   |
             |  Wannier90 Developer Group:                       |
             |    Giovanni Pizzi    (EPFL)                       |
             |    Valerio Vitale    (Cambridge)                  |
             |    David Vanderbilt  (Rutgers University)         |
             |    Nicola Marzari    (EPFL)                       |
             |    Ivo Souza         (Universidad del Pais Vasco) |
             |    Arash A. Mostofi  (Imperial College London)    |
             |    Jonathan R. Yates (University of Oxford)       |
             |                                                   |
             |  For the full list of Wannier90 3.x authors,      |
             |  please check the code documentation and the      |
             |  README on the GitHub page of the code            |
             |                                                   |
             |                                                   |
             |  Please cite                                      |
             |                                                   |
             |  [ref] "Wannier90 as a community code:            |
             |        new features and applications",            |
             |        G. Pizzi et al., arXiv:1907:09788 (2019)   |
             |        https://arxiv.org/abs/1907.09788           |
             |                                                   |
             |  in any publications arising from the use of      |
             |  this code. For the method please cite            |
             |                                                   |
             |  [ref] "Maximally Localized Generalised Wannier   |
             |         Functions for Composite Energy Bands"     |
             |         N. Marzari and D. Vanderbilt              |
             |         Phys. Rev. B 56 12847 (1997)              |
             |                                                   |
             |  [ref] "Maximally Localized Wannier Functions     |
             |         for Entangled Energy Bands"               |
             |         I. Souza, N. Marzari and D. Vanderbilt    |
             |         Phys. Rev. B 65 035109 (2001)             |
             |                                                   |
             |                                                   |
             | Copyright (c) 1996-2019                           |
             |        The Wannier90 Developer Group and          |
             |        individual contributors                    |
             |                                                   |
             |      Release: 3.0.0       27th February 2019      |
             |                                                   |
             | This program is free software; you can            |
             | redistribute it and/or modify it under the terms  |
             | of the GNU General Public License as published by |
             | the Free Software Foundation; either version 2 of |
             | the License, or (at your option) any later version|
             |                                                   |
             | This program is distributed in the hope that it   |
             | will be useful, but WITHOUT ANY WARRANTY; without |
             | even the implied warranty of MERCHANTABILITY or   |
             | FITNESS FOR A PARTICULAR PURPOSE. See the GNU     |
             | General Public License for more details.          |
             |                                                   |
             | You should have received a copy of the GNU General|
             | Public License along with this program; if not,   |
             | write to the Free Software Foundation, Inc.,      |
             | 675 Mass Ave, Cambridge, MA 02139, USA.           |
             |                                                   |
             +---------------------------------------------------+
             |    Execution started on  2Mar2020 at 10:44:59     |
             +---------------------------------------------------+
 
 ******************************************************************************
 * -> Using CODATA 2006 constant values                                       *
 *    (http://physics.nist.gov/cuu/Constants/index.html)                      *
 * -> Using Bohr value from CODATA                                            *
 ******************************************************************************
 

 Running in parallel on   4 CPUs

 
                                    ------
                                    SYSTEM
                                    ------
 
                              Lattice Vectors (Ang)
                    a_1    -1.782886   1.782886   3.390532
                    a_2     1.782886  -1.782886   3.390532
                    a_3     1.782886   1.782886  -3.390532
 
                   Unit Cell Volume:      43.10972  (Ang^3)
 
                        Reciprocal-Space Vectors (Ang^-1)
                    b_1     0.000000   1.762082   0.926578
                    b_2     1.762082   0.000000   0.926578
                    b_3     1.762082   1.762082   0.000000
  
 *----------------------------------------------------------------------------*
 |   Site       Fractional Coordinate          Cartesian Coordinate (Ang)     |
 +----------------------------------------------------------------------------+
 | Sr   1   0.00000   0.00000   0.00000   |    0.00000   0.00000   0.00000    |
 | O    1   0.61087   0.61087   1.00000   |    1.78289   1.78289   0.75185    |
 | O    2   0.38913   0.38913   0.00000   |    0.00000   0.00000   2.63868    |
 *----------------------------------------------------------------------------*
                                ------------
                                K-POINT GRID
                                ------------
  
             Grid size =  9 x  9 x  9      Total points =  729
  
  
 *---------------------------------- MAIN ------------------------------------*
 |  Number of Wannier Functions               :                21             |
 |  Number of Objective Wannier Functions     :                21             |
 |  Number of input Bloch states              :                31             |
 |  Output verbosity (1=low, 5=high)          :                 1             |
 |  Timing Level (1=low, 5=high)              :                 1             |
 |  Optimisation (0=memory, 3=speed)          :                 3             |
 |  Length Unit                               :               Ang             |
 |  Post-processing setup (write *.nnkp)      :                 F             |
 |  Using Gamma-only branch of algorithms     :                 F             |
 *----------------------------------------------------------------------------*
 *------------------------------- WANNIERISE ---------------------------------*
 |  Total number of iterations                :               200             |
 |  Number of CG steps before reset           :                 5             |
 |  Trial step length for line search         :             2.000             |
 |  Convergence tolerence                     :         0.300E-04             |
 |  Convergence window                        :                 3             |
 |  Iterations between writing output         :                 1             |
 |  Iterations between backing up to disk     :               100             |
 |  Write r^2_nm to file                      :                 F             |
 |  Write xyz WF centres to file              :                 T             |
 |  Write on-site energies <0n|H|0n> to file  :                 F             |
 |  Use guiding centre to control phases      :                 F             |
 |  Use phases for initial projections        :                 F             |
 *----------------------------------------------------------------------------*
 *------------------------------- DISENTANGLE --------------------------------*
 |  Using band disentanglement                :                 T             |
 |  Total number of iterations                :                 0             |
 |  Mixing ratio                              :             0.500             |
 |  Convergence tolerence                     :         1.000E-10             |
 |  Convergence window                        :                 3             |
 *----------------------------------------------------------------------------*
 *-------------------------------- PLOTTING ----------------------------------*
 |  Plotting interpolated bandstructure       :                 T             |
 |   Number of K-path sections                :                 9             |
 |   Divisions along first K-path section     :               100             |
 |   Output format                            :           gnuplot             |
 |   Output mode                              :               s-k             |
 *----------------------------------------------------------------------------*
 |   K-space path sections:                                                   |
 |    From: GAMMA   0.000  0.000  0.000     To: X       0.000  0.000  0.500   |
 |    From: X       0.000  0.000  0.500     To: P       0.250  0.250  0.250   |
 |    From: P       0.250  0.250  0.250     To: N       0.000  0.500  0.000   |
 |    From: N       0.000  0.500  0.000     To: GAMMA   0.000  0.000  0.000   |
 |    From: GAMMA   0.000  0.000  0.000     To: M       0.500  0.500 -0.500   |
 |    From: M       0.500  0.500 -0.500     To: S       0.319  0.681 -0.319   |
 |    From: S_0    -0.319  0.319  0.319     To: GAMMA   0.000  0.000  0.000   |
 |    From: X       0.000  0.000  0.500     To: R      -0.138  0.138  0.500   |
 |    From: G       0.500  0.500 -0.138     To: M       0.500  0.500 -0.500   |
 *----------------------------------------------------------------------------*
 |  Plotting Hamiltonian in WF basis          :                 T             |
 *----------------------------------------------------------------------------*
 Time to read parameters        0.049 (sec)

 *---------------------------------- K-MESH ----------------------------------*
 +----------------------------------------------------------------------------+
 |                    Distance to Nearest-Neighbour Shells                    |
 |                    ------------------------------------                    |
 |          Shell             Distance (Ang^-1)          Multiplicity         |
 |          -----             -----------------          ------------         |
 |             1                   0.205906                      2            |
 |             2                   0.221205                      8            |
 |             3                   0.276885                      4            |
 |             4                   0.345054                      8            |
 |             5                   0.365686                      8            |
 |             6                   0.391574                      4            |
 |             7                   0.411812                      2            |
 |             8                   0.442411                      8            |
 |             9                   0.449735                     16            |
 |            10                   0.496240                      8            |
 |            11                   0.535777                     16            |
 |            12                   0.550741                      8            |
 |            13                   0.553769                      4            |
 |            14                   0.568260                      8            |
 |            15                   0.590811                      8            |
 |            16                   0.596315                      8            |
 |            17                   0.617719                      2            |
 |            18                   0.619133                      8            |
 |            19                   0.652474                     16            |
 |            20                   0.663616                      8            |
 |            21                   0.675756                     16            |
 |            22                   0.676935                      8            |
 |            23                   0.690108                      8            |
 |            24                   0.713388                     16            |
 |            25                   0.731373                      8            |
 |            26                   0.743582                     16            |
 |            27                   0.746793                      8            |
 |            28                   0.770530                     16            |
 |            29                   0.781010                      8            |
 |            30                   0.783148                      4            |
 |            31                   0.809764                      8            |
 |            32                   0.813789                     16            |
 |            33                   0.823625                      2            |
 |            34                   0.829600                      8            |
 |            35                   0.830654                      4            |
 |            36                   0.843226                     16            |
 +----------------------------------------------------------------------------+
 | The b-vectors are chosen automatically                                     |
 | The following shells are used:   1,  2                                     |
 +----------------------------------------------------------------------------+
 |                        Shell   # Nearest-Neighbours                        |
 |                        -----   --------------------                        |
 |                          1               2                                 |
 |                          2               8                                 |
 +----------------------------------------------------------------------------+
 | Completeness relation is fully satisfied [Eq. (B1), PRB 56, 12847 (1997)]  |
 +----------------------------------------------------------------------------+
 |                  b_k Vectors (Ang^-1) and Weights (Ang^2)                  |
 |                  ----------------------------------------                  |
 |            No.         b_k(x)      b_k(y)      b_k(z)        w_b           |
 |            ---        --------------------------------     --------        |
 |             1         0.000000    0.000000    0.205906     5.271308        |
 |             2         0.000000    0.000000   -0.205906     5.271308        |
 |             3         0.195787    0.000000    0.102953     6.521877        |
 |             4         0.000000    0.195787    0.102953     6.521877        |
 |             5        -0.195787    0.000000   -0.102953     6.521877        |
 |             6         0.000000    0.195787   -0.102953     6.521877        |
 |             7         0.000000   -0.195787   -0.102953     6.521877        |
 |             8         0.195787    0.000000   -0.102953     6.521877        |
 |             9         0.000000   -0.195787    0.102953     6.521877        |
 |            10        -0.195787    0.000000    0.102953     6.521877        |
 +----------------------------------------------------------------------------+
 |                           b_k Directions (Ang^-1)                          |
 |                           -----------------------                          |
 |            No.           x           y           z                         |
 |            ---        --------------------------------                     |
 |             1         0.000000    0.000000    0.205906                     |
 |             2         0.195787    0.000000    0.102953                     |
 |             3         0.000000    0.195787    0.102953                     |
 |             4         0.000000    0.195787   -0.102953                     |
 |             5         0.195787    0.000000   -0.102953                     |
 +----------------------------------------------------------------------------+
  
 Time to get kmesh              0.281 (sec)
 *============================================================================*
 |                              MEMORY ESTIMATE                               |
 |         Maximum RAM allocated during each phase of the calculation         |
 *============================================================================*
 |                        Disentanglement          176.24 Mb                  |
 |                            Wannierise:          131.38 Mb                  |
 |                          plot_wannier:          131.38 Mb                  |
 *----------------------------------------------------------------------------*
  
 Starting a new Wannier90 calculation ...


 Reading overlaps from aiida.mmn    :  Created on 21Feb2020 at 11: 9:39

 Reading projections from aiida.amn :  Created on 21Feb2020 at 11: 9:34  with SCDM

 Time to read overlaps          4.917 (sec)

 *------------------------------- DISENTANGLE --------------------------------*
 +----------------------------------------------------------------------------+
 |                              Energy  Windows                               |
 |                              ---------------                               |
 |                   Outer:  -25.37173  to   38.53649  (eV)                   |
 |                   No frozen states were specified                          |
 +----------------------------------------------------------------------------+
   Number of target bands to extract:   21

                   Unitarised projection of Wannier functions                  
                   ------------------------------------------                  
   A_mn = <psi_m|g_n> --> S = A.A^+ --> U = S^-1/2.A
   In dis_project... done
   No inner window (linner = F)

                   Extraction of optimally-connected subspace                  
                   ------------------------------------------                  
 +---------------------------------------------------------------------+<-- DIS
 |  Iter     Omega_I(i-1)      Omega_I(i)      Delta (frac.)    Time   |<-- DIS
 +---------------------------------------------------------------------+<-- DIS

     <<< Warning: Maximum number of disentanglement iterations reached >>>
          <<< Disentanglement convergence criteria not satisfied >>>

        Final Omega_I ************** (Ang^2)

 +----------------------------------------------------------------------------+

 Time to disentangle bands      0.358 (sec)

 done

 
 *------------------------------- WANNIERISE ---------------------------------*
 +--------------------------------------------------------------------+<-- CONV
 | Iter  Delta Spread     RMS Gradient      Spread (Ang^2)      Time  |<-- CONV
 +--------------------------------------------------------------------+<-- CONV
 
 ------------------------------------------------------------------------------
 Initial State
  WF centre and spread    1  (  0.186635, -0.131122, -2.340339 )     0.49485263
  WF centre and spread    2  (  0.061225, -0.012729,  2.271836 )     0.59410807
  WF centre and spread    3  (  0.472317, -0.188897,  0.130357 )     3.23017561
  WF centre and spread    4  ( -0.448104, -0.160154, -0.138441 )     1.91212162
  WF centre and spread    5  (  0.231868,  0.428393,  0.167639 )     1.33112352
  WF centre and spread    6  (  0.064538, -0.048937, -2.903256 )     0.53175629
  WF centre and spread    7  ( -0.334521, -0.050455,  0.450735 )     1.48163292
  WF centre and spread    8  ( -0.167222,  0.191564,  2.683691 )     0.59449405
  WF centre and spread    9  ( -0.154909, -0.219373,  2.720080 )     0.62575358
  WF centre and spread   10  ( -0.249366, -0.072856, -2.623555 )     0.66495808
  WF centre and spread   11  ( -0.033265,  0.236622, -2.618547 )     0.63807925
  WF centre and spread   12  (  0.227080,  0.036835,  2.821004 )     0.55825384
  WF centre and spread   13  ( -0.123544, -0.579841,  0.129353 )     4.85138370
  WF centre and spread   14  (  1.192672, -0.019316,  0.111682 )     5.90054705
  WF centre and spread   15  (  0.057579,  0.227960, -0.338035 )     3.27953857
  WF centre and spread   16  ( -0.314151,  0.295944,  0.032705 )     3.13327891
  WF centre and spread   17  (  0.278079, -0.051195,  0.424100 )     2.35844690
  WF centre and spread   18  (  0.071447, -0.259871, -0.400351 )     3.49264240
  WF centre and spread   19  (  1.792952, -0.153804, -1.636912 )     6.20103531
  WF centre and spread   20  (  0.012264,  1.515913, -0.981072 )     7.64290353
  WF centre and spread   21  (  0.841940,  1.231672, -3.284065 )     9.39973195
  Sum of centres and spreads (  3.665514,  2.216354, -5.321391 )    58.91681778
 
      0     0.589E+02     0.0000000000       58.9168177959       0.00  <-- CONV
        O_D=      2.0541930 O_OD=     30.5600015 O_TOT=     58.9168178 <-- SPRD
 ------------------------------------------------------------------------------
 Cycle:      1
  WF centre and spread    1  (  0.184058, -0.128840, -2.341595 )     0.46342965
  WF centre and spread    2  (  0.060527, -0.012338,  2.271143 )     0.52917454
  WF centre and spread    3  (  0.478242, -0.178574,  0.145917 )     2.65985204
  WF centre and spread    4  ( -0.459037, -0.162879, -0.132765 )     1.62549864
  WF centre and spread    5  (  0.238479,  0.432595,  0.168126 )     1.16480294
  WF centre and spread    6  (  0.066843, -0.049504, -2.903751 )     0.48446227
  WF centre and spread    7  ( -0.332870, -0.049036,  0.452428 )     1.32114740
  WF centre and spread    8  ( -0.166664,  0.191941,  2.683702 )     0.56009328
  WF centre and spread    9  ( -0.156158, -0.220468,  2.719614 )     0.57492354
  WF centre and spread   10  ( -0.247441, -0.073121, -2.624474 )     0.61640757
  WF centre and spread   11  ( -0.033735,  0.236721, -2.620046 )     0.59586107
  WF centre and spread   12  (  0.231115,  0.037100,  2.821112 )     0.50163737
  WF centre and spread   13  ( -0.119190, -0.588697,  0.131645 )     3.85557538
  WF centre and spread   14  (  1.215359, -0.007536,  0.123466 )     4.90501666
  WF centre and spread   15  (  0.055404,  0.219417, -0.326567 )     2.72692293
  WF centre and spread   16  ( -0.310562,  0.295550,  0.035782 )     2.58910044
  WF centre and spread   17  (  0.279553, -0.052346,  0.436731 )     2.07913407
  WF centre and spread   18  (  0.074850, -0.280825, -0.399110 )     2.99440241
  WF centre and spread   19  (  1.778580, -0.169269, -1.642726 )     5.33582987
  WF centre and spread   20  (  0.006499,  1.490893, -0.985958 )     6.15296892
  WF centre and spread   21  (  0.825607,  1.250416, -3.285904 )     7.78460984
  Sum of centres and spreads (  3.669458,  2.181198, -5.273230 )    49.52085082
 
      1    -0.940E+01     1.6567832715       49.5208508372       0.13  <-- CONV
        O_D=      1.3080396 O_OD=     21.9101879 O_TOT=     49.5208508 <-- SPRD
 Delta: O_D= -0.7461534E+00 O_OD= -0.8649814E+01 O_TOT= -0.9395967E+01 <-- DLTA
 ------------------------------------------------------------------------------
 Cycle:      2
  WF centre and spread    1  (  0.182016, -0.126718, -2.343437 )     0.44444633
  WF centre and spread    2  (  0.059994, -0.011984,  2.272408 )     0.49216558
  WF centre and spread    3  (  0.482195, -0.173665,  0.153581 )     2.43192192
  WF centre and spread    4  ( -0.467560, -0.162317, -0.130256 )     1.54508325
  WF centre and spread    5  (  0.243919,  0.436520,  0.166771 )     1.09632749
  WF centre and spread    6  (  0.068905, -0.049991, -2.904738 )     0.45516118
  WF centre and spread    7  ( -0.330550, -0.048606,  0.453306 )     1.25505023
  WF centre and spread    8  ( -0.165656,  0.191903,  2.683820 )     0.53889576
  WF centre and spread    9  ( -0.156658, -0.220879,  2.719556 )     0.54357482
  WF centre and spread   10  ( -0.245035, -0.072983, -2.625510 )     0.58588680
  WF centre and spread   11  ( -0.033898,  0.236711, -2.621598 )     0.56625126
  WF centre and spread   12  (  0.234786,  0.037591,  2.821866 )     0.46694164
  WF centre and spread   13  ( -0.113034, -0.583922,  0.127473 )     3.45797504
  WF centre and spread   14  (  1.228666,  0.002577,  0.131885 )     4.47773042
  WF centre and spread   15  (  0.055382,  0.218348, -0.325015 )     2.46856393
  WF centre and spread   16  ( -0.308062,  0.297872,  0.034244 )     2.36629460
  WF centre and spread   17  (  0.278791, -0.053642,  0.446287 )     1.98716408
  WF centre and spread   18  (  0.076253, -0.289687, -0.396229 )     2.79086206
  WF centre and spread   19  (  1.761684, -0.189819, -1.647960 )     5.22529714
  WF centre and spread   20  (  0.004091,  1.468360, -0.977212 )     5.51560346
  WF centre and spread   21  (  0.817761,  1.269680, -3.289528 )     7.07785122
  Sum of centres and spreads (  3.673990,  2.175349, -5.250283 )    45.78904819
 
      2    -0.373E+01     1.2118849169       45.7890482076       0.19  <-- CONV
        O_D=      0.9978036 O_OD=     18.4886213 O_TOT=     45.7890482 <-- SPRD
 Delta: O_D= -0.3102360E+00 O_OD= -0.3421567E+01 O_TOT= -0.3731803E+01 <-- DLTA
 ------------------------------------------------------------------------------
 Cycle:      3
  WF centre and spread    1  (  0.180298, -0.124791, -2.345800 )     0.43210628
  WF centre and spread    2  (  0.059584, -0.011628,  2.275054 )     0.46939077
  WF centre and spread    3  (  0.485889, -0.171531,  0.158692 )     2.30867205
  WF centre and spread    4  ( -0.474908, -0.161879, -0.127088 )     1.52672988
  WF centre and spread    5  (  0.248624,  0.440400,  0.164827 )     1.05604713
  WF centre and spread    6  (  0.070801, -0.050469, -2.905939 )     0.43671163
  WF centre and spread    7  ( -0.328291, -0.048440,  0.454034 )     1.22171121
  WF centre and spread    8  ( -0.164556,  0.191777,  2.684178 )     0.52512265
  WF centre and spread    9  ( -0.156741, -0.220978,  2.719917 )     0.52305082
  WF centre and spread   10  ( -0.242447, -0.072781, -2.626771 )     0.56526493
  WF centre and spread   11  ( -0.033841,  0.236532, -2.623182 )     0.54570540
  WF centre and spread   12  (  0.237988,  0.038101,  2.823201 )     0.44482132
  WF centre and spread   13  ( -0.106652, -0.578244,  0.122434 )     3.21854937
  WF centre and spread   14  (  1.236936,  0.009739,  0.138732 )     4.26903142
  WF centre and spread   15  (  0.055646,  0.219603, -0.326553 )     2.29224531
  WF centre and spread   16  ( -0.307840,  0.301658,  0.031348 )     2.24899926
  WF centre and spread   17  (  0.278465, -0.054117,  0.454600 )     1.94492887
  WF centre and spread   18  (  0.076552, -0.293334, -0.391951 )     2.63904854
  WF centre and spread   19  (  1.748479, -0.207020, -1.653697 )     5.22339787
  WF centre and spread   20  (  0.002092,  1.451636, -0.967003 )     5.07698377
  WF centre and spread   21  (  0.810415,  1.284369, -3.296597 )     6.72320546
  Sum of centres and spreads (  3.676491,  2.178602, -5.237564 )    43.69172395
 
      3    -0.210E+01     0.8863418195       43.6917239682       0.25  <-- CONV
        O_D=      0.8749912 O_OD=     16.5141095 O_TOT=     43.6917240 <-- SPRD
 Delta: O_D= -0.1228124E+00 O_OD= -0.1974512E+01 O_TOT= -0.2097324E+01 <-- DLTA
 ------------------------------------------------------------------------------
 Cycle:      4
  WF centre and spread    1  (  0.178806, -0.123017, -2.348479 )     0.42451232
  WF centre and spread    2  (  0.059210, -0.011323,  2.278156 )     0.45388844
  WF centre and spread    3  (  0.487790, -0.171037,  0.162371 )     2.23058127
  WF centre and spread    4  ( -0.480463, -0.161879, -0.122294 )     1.52851931
  WF centre and spread    5  (  0.253430,  0.444542,  0.162625 )     1.02676243
  WF centre and spread    6  (  0.072556, -0.050959, -2.906979 )     0.42598234
  WF centre and spread    7  ( -0.326254, -0.048369,  0.454349 )     1.20682946
  WF centre and spread    8  ( -0.163470,  0.191581,  2.684759 )     0.51791022
  WF centre and spread    9  ( -0.156525, -0.220843,  2.720551 )     0.50994680
  WF centre and spread   10  ( -0.239764, -0.072495, -2.628200 )     0.55302178
  WF centre and spread   11  ( -0.033541,  0.236180, -2.624788 )     0.53248742
  WF centre and spread   12  (  0.240718,  0.038591,  2.824675 )     0.43195467
  WF centre and spread   13  ( -0.100405, -0.574439,  0.117546 )     3.04610243
  WF centre and spread   14  (  1.242849,  0.013001,  0.143006 )     4.17474261
  WF centre and spread   15  (  0.055716,  0.220671, -0.328179 )     2.16747991
  WF centre and spread   16  ( -0.308557,  0.306982,  0.028332 )     2.16513924
  WF centre and spread   17  (  0.278410, -0.054219,  0.462160 )     1.91443159
  WF centre and spread   18  (  0.076338, -0.295678, -0.386671 )     2.52612342
  WF centre and spread   19  (  1.739387, -0.218855, -1.659794 )     5.22434705
  WF centre and spread   20  ( -0.001632,  1.438952, -0.958856 )     4.83652756
  WF centre and spread   21  (  0.803184,  1.294123, -3.303549 )     6.50291120
  Sum of centres and spreads (  3.677780,  2.181510, -5.229261 )    42.40020147
 
      4    -0.129E+01     0.6887567136       42.4002014860       0.32  <-- CONV
        O_D=      0.8100915 O_OD=     15.2874867 O_TOT=     42.4002015 <-- SPRD
 Delta: O_D= -0.6489971E-01 O_OD= -0.1226623E+01 O_TOT= -0.1291522E+01 <-- DLTA
 ------------------------------------------------------------------------------
 Cycle:      5
  WF centre and spread    1  (  0.177526, -0.121421, -2.351225 )     0.42000489
  WF centre and spread    2  (  0.058873, -0.011085,  2.281181 )     0.44331211
  WF centre and spread    3  (  0.486982, -0.171178,  0.164601 )     2.18011534
  WF centre and spread    4  ( -0.484151, -0.161810, -0.116731 )     1.53918149
  WF centre and spread    5  (  0.258536,  0.448723,  0.160180 )     1.00144745
  WF centre and spread    6  (  0.074128, -0.051408, -2.907600 )     0.42004774
  WF centre and spread    7  ( -0.324562, -0.048255,  0.454370 )     1.20309695
  WF centre and spread    8  ( -0.162437,  0.191329,  2.685463 )     0.51621332
  WF centre and spread    9  ( -0.156007, -0.220498,  2.721289 )     0.50276168
  WF centre and spread   10  ( -0.237145, -0.072067, -2.629649 )     0.54772433
  WF centre and spread   11  ( -0.033009,  0.235735, -2.626329 )     0.52572579
  WF centre and spread   12  (  0.242889,  0.039044,  2.825884 )     0.42652274
  WF centre and spread   13  ( -0.094534, -0.571857,  0.114116 )     2.90611059
  WF centre and spread   14  (  1.247353,  0.012523,  0.145044 )     4.12887237
  WF centre and spread   15  (  0.055513,  0.221033, -0.329499 )     2.06603788
  WF centre and spread   16  ( -0.308872,  0.312957,  0.025383 )     2.09016567
  WF centre and spread   17  (  0.278755, -0.054254,  0.468732 )     1.89203176
  WF centre and spread   18  (  0.075877, -0.297930, -0.381497 )     2.43241251
  WF centre and spread   19  (  1.732347, -0.226872, -1.665676 )     5.24311175
  WF centre and spread   20  ( -0.006817,  1.429507, -0.952046 )     4.72693696
  WF centre and spread   21  (  0.795708,  1.299384, -3.309764 )     6.34509321
  Sum of centres and spreads (  3.676954,  2.181602, -5.223772 )    41.55692652
 
      5    -0.843E+00     0.5491623000       41.5569265323       0.38  <-- CONV
        O_D=      0.7969322 O_OD=     14.4573711 O_TOT=     41.5569265 <-- SPRD
 Delta: O_D= -0.1315935E-01 O_OD= -0.8301156E+00 O_TOT= -0.8432750E+00 <-- DLTA
 ------------------------------------------------------------------------------
 Cycle:      6
  WF centre and spread    1  (  0.176459, -0.120026, -2.353754 )     0.41786721
  WF centre and spread    2  (  0.058614, -0.010892,  2.283816 )     0.43625904
  WF centre and spread    3  (  0.484700, -0.171594,  0.165708 )     2.14796819
  WF centre and spread    4  ( -0.486711, -0.161581, -0.111524 )     1.55433709
  WF centre and spread    5  (  0.263451,  0.452760,  0.157670 )     0.97843750
  WF centre and spread    6  (  0.075507, -0.051768, -2.907618 )     0.41790453
  WF centre and spread    7  ( -0.323329, -0.047965,  0.454452 )     1.20487268
  WF centre and spread    8  ( -0.161453,  0.191051,  2.686178 )     0.51864861
  WF centre and spread    9  ( -0.155248, -0.220045,  2.721989 )     0.50006784
  WF centre and spread   10  ( -0.234780, -0.071521, -2.630931 )     0.54714200
  WF centre and spread   11  ( -0.032326,  0.235289, -2.627688 )     0.52479360
  WF centre and spread   12  (  0.244478,  0.039434,  2.826595 )     0.42653604
  WF centre and spread   13  ( -0.088995, -0.570519,  0.112470 )     2.79554455
  WF centre and spread   14  (  1.250837,  0.009397,  0.146365 )     4.10800664
  WF centre and spread   15  (  0.055103,  0.220783, -0.331444 )     1.98225809
  WF centre and spread   16  ( -0.308459,  0.318723,  0.022563 )     2.01946526
  WF centre and spread   17  (  0.279741, -0.054260,  0.474447 )     1.87047776
  WF centre and spread   18  (  0.075157, -0.299929, -0.377314 )     2.35291434
  WF centre and spread   19  (  1.725820, -0.233208, -1.671766 )     5.27214127
  WF centre and spread   20  ( -0.012396,  1.424121, -0.946052 )     4.68448500
  WF centre and spread   21  (  0.788733,  1.302900, -3.315051 )     6.22993682
  Sum of centres and spreads (  3.674902,  2.181148, -5.220888 )    40.99006406
 
      6    -0.567E+00     0.4452691197       40.9900640790       0.44  <-- CONV
        O_D=      0.7993964 O_OD=     13.8880444 O_TOT=     40.9900641 <-- SPRD
 Delta: O_D=  0.2464279E-02 O_OD= -0.5693267E+00 O_TOT= -0.5668625E+00 <-- DLTA
 ------------------------------------------------------------------------------
 Cycle:      7
  WF centre and spread    1  (  0.176274, -0.119792, -2.354176 )     0.41607929
  WF centre and spread    2  (  0.058571, -0.010848,  2.284238 )     0.43354608
  WF centre and spread    3  (  0.484410, -0.171623,  0.165668 )     2.13635262
  WF centre and spread    4  ( -0.487333, -0.161519, -0.110908 )     1.54877760
  WF centre and spread    5  (  0.264325,  0.453709,  0.157308 )     0.96815420
  WF centre and spread    6  (  0.075757, -0.051830, -2.907447 )     0.41574110
  WF centre and spread    7  ( -0.323516, -0.047770,  0.454613 )     1.20032437
  WF centre and spread    8  ( -0.161290,  0.190973,  2.686300 )     0.51769779
  WF centre and spread    9  ( -0.155045, -0.219955,  2.722116 )     0.49822496
  WF centre and spread   10  ( -0.234426, -0.071434, -2.631129 )     0.54548418
  WF centre and spread   11  ( -0.032159,  0.235188, -2.627875 )     0.52410119
  WF centre and spread   12  (  0.244698,  0.039499,  2.826613 )     0.42536269
  WF centre and spread   13  ( -0.088011, -0.571207,  0.112723 )     2.76607099
  WF centre and spread   14  (  1.252325,  0.007951,  0.146929 )     4.09376615
  WF centre and spread   15  (  0.055036,  0.220893, -0.332311 )     1.95948860
  WF centre and spread   16  ( -0.308172,  0.319934,  0.021972 )     1.99389514
  WF centre and spread   17  (  0.280445, -0.054282,  0.475452 )     1.85553172
  WF centre and spread   18  (  0.074924, -0.300682, -0.376740 )     2.33044788
  WF centre and spread   19  (  1.724305, -0.234017, -1.673567 )     5.24417189
  WF centre and spread   20  ( -0.012991,  1.424923, -0.945159 )     4.66138090
  WF centre and spread   21  (  0.786367,  1.302567, -3.315324 )     6.19396958
  Sum of centres and spreads (  3.674496,  2.180679, -5.220703 )    40.72856892
 
      7    -0.261E+00     0.3754080699       40.7285689327       0.50  <-- CONV
        O_D=      0.7816754 O_OD=     13.6442702 O_TOT=     40.7285689 <-- SPRD
 Delta: O_D= -0.1772101E-01 O_OD= -0.2437741E+00 O_TOT= -0.2614951E+00 <-- DLTA
 ------------------------------------------------------------------------------
 Cycle:      8
  WF centre and spread    1  (  0.175857, -0.119246, -2.355201 )     0.41390784
  WF centre and spread    2  (  0.058489, -0.010754,  2.285274 )     0.42961699
  WF centre and spread    3  (  0.483514, -0.171715,  0.165440 )     2.12833249
  WF centre and spread    4  ( -0.488685, -0.161349, -0.109551 )     1.55004069
  WF centre and spread    5  (  0.266334,  0.455937,  0.156336 )     0.95263488
  WF centre and spread    6  (  0.076352, -0.051971, -2.907026 )     0.41293216
  WF centre and spread    7  ( -0.323882, -0.047322,  0.454833 )     1.19710899
  WF centre and spread    8  ( -0.160885,  0.190783,  2.686577 )     0.51755767
  WF centre and spread    9  ( -0.154550, -0.219730,  2.722392 )     0.49623496
  WF centre and spread   10  ( -0.233599, -0.071208, -2.631574 )     0.54393806
  WF centre and spread   11  ( -0.031751,  0.235001, -2.628312 )     0.52497761
  WF centre and spread   12  (  0.245189,  0.039649,  2.826636 )     0.42496013
  WF centre and spread   13  ( -0.085578, -0.572754,  0.112991 )     2.72963986
  WF centre and spread   14  (  1.255699,  0.004214,  0.148274 )     4.09943096
  WF centre and spread   15  (  0.054941,  0.221108, -0.334555 )     1.92648297
  WF centre and spread   16  ( -0.307647,  0.322970,  0.020459 )     1.95234254
  WF centre and spread   17  (  0.281829, -0.054303,  0.477687 )     1.83389523
  WF centre and spread   18  (  0.074351, -0.302204, -0.375237 )     2.29767349
  WF centre and spread   19  (  1.720703, -0.235790, -1.677258 )     5.23500949
  WF centre and spread   20  ( -0.014226,  1.426989, -0.942834 )     4.67064275
  WF centre and spread   21  (  0.781121,  1.301891, -3.315759 )     6.17611027
  Sum of centres and spreads (  3.673574,  2.180197, -5.220410 )    40.51347002
 
      8    -0.215E+00     0.2637816775       40.5134700358       0.57  <-- CONV
        O_D=      0.7771660 O_OD=     13.4336808 O_TOT=     40.5134700 <-- SPRD
 Delta: O_D= -0.4509429E-02 O_OD= -0.2105895E+00 O_TOT= -0.2150989E+00 <-- DLTA
 ------------------------------------------------------------------------------
 Cycle:      9
  WF centre and spread    1  (  0.175189, -0.118326, -2.357055 )     0.41271003
  WF centre and spread    2  (  0.058411, -0.010607,  2.287147 )     0.42552303
  WF centre and spread    3  (  0.481900, -0.171786,  0.164869 )     2.11723539
  WF centre and spread    4  ( -0.490829, -0.161213, -0.107168 )     1.55866816
  WF centre and spread    5  (  0.269670,  0.459731,  0.154398 )     0.93290276
  WF centre and spread    6  (  0.077395, -0.052212, -2.906260 )     0.41065582
  WF centre and spread    7  ( -0.324368, -0.046532,  0.454928 )     1.19565166
  WF centre and spread    8  ( -0.160142,  0.190484,  2.687036 )     0.51946055
  WF centre and spread    9  ( -0.153698, -0.219346,  2.722801 )     0.49525882
  WF centre and spread   10  ( -0.232287, -0.070801, -2.632266 )     0.54368390
  WF centre and spread   11  ( -0.031038,  0.234853, -2.629021 )     0.52933444
  WF centre and spread   12  (  0.245923,  0.039872,  2.826589 )     0.42673940
  WF centre and spread   13  ( -0.081044, -0.575694,  0.113135 )     2.67420638
  WF centre and spread   14  (  1.261770, -0.002662,  0.150797 )     4.11849583
  WF centre and spread   15  (  0.054925,  0.221341, -0.338926 )     1.87487834
  WF centre and spread   16  ( -0.307117,  0.328556,  0.017744 )     1.88813730
  WF centre and spread   17  (  0.283676, -0.054315,  0.481397 )     1.80374101
  WF centre and spread   18  (  0.073268, -0.304381, -0.372354 )     2.24696274
  WF centre and spread   19  (  1.714513, -0.238845, -1.682646 )     5.23952950
  WF centre and spread   20  ( -0.016171,  1.430773, -0.938392 )     4.69494178
  WF centre and spread   21  (  0.772288,  1.301211, -3.316319 )     6.16880758
  Sum of centres and spreads (  3.672232,  2.180101, -5.219565 )    40.27752439
 
      9    -0.236E+00     0.2530054828       40.2775244111       0.63  <-- CONV
        O_D=      0.7878375 O_OD=     13.1870636 O_TOT=     40.2775244 <-- SPRD
 Delta: O_D=  0.1067148E-01 O_OD= -0.2466171E+00 O_TOT= -0.2359456E+00 <-- DLTA
 ------------------------------------------------------------------------------
 Cycle:     10
  WF centre and spread    1  (  0.174486, -0.117312, -2.359281 )     0.41388211
  WF centre and spread    2  (  0.058416, -0.010470,  2.289349 )     0.42349544
  WF centre and spread    3  (  0.480247, -0.171649,  0.164112 )     2.10185219
  WF centre and spread    4  ( -0.493196, -0.161337, -0.104364 )     1.57046881
  WF centre and spread    5  (  0.273343,  0.464047,  0.151774 )     0.91708909
  WF centre and spread    6  (  0.078646, -0.052509, -2.905297 )     0.41075659
  WF centre and spread    7  ( -0.324711, -0.045551,  0.454721 )     1.19595747
  WF centre and spread    8  ( -0.159237,  0.190226,  2.687546 )     0.52360768
  WF centre and spread    9  ( -0.152749, -0.218969,  2.723176 )     0.49659076
  WF centre and spread   10  ( -0.231034, -0.070333, -2.632921 )     0.54561329
  WF centre and spread   11  ( -0.030202,  0.235012, -2.629747 )     0.53755964
  WF centre and spread   12  (  0.246596,  0.040055,  2.826342 )     0.43131355
  WF centre and spread   13  ( -0.075211, -0.579969,  0.113299 )     2.61028200
  WF centre and spread   14  (  1.269378, -0.010878,  0.154594 )     4.14717941
  WF centre and spread   15  (  0.055113,  0.221440, -0.345005 )     1.81597181
  WF centre and spread   16  ( -0.306947,  0.335459,  0.014464 )     1.81498473
  WF centre and spread   17  (  0.285104, -0.054389,  0.485576 )     1.77273894
  WF centre and spread   18  (  0.071964, -0.305960, -0.368809 )     2.19212053
  WF centre and spread   19  (  1.707225, -0.242535, -1.688068 )     5.25320905
  WF centre and spread   20  ( -0.018412,  1.434879, -0.932935 )     4.71289415
  WF centre and spread   21  (  0.762392,  1.302211, -3.316747 )     6.16698331
  Sum of centres and spreads (  3.671211,  2.181467, -5.218220 )    40.05455055
 
     10    -0.223E+00     0.2596638866       40.0545505704       0.69  <-- CONV
        O_D=      0.7986138 O_OD=     12.9533135 O_TOT=     40.0545506 <-- SPRD
 Delta: O_D=  0.1077626E-01 O_OD= -0.2337501E+00 O_TOT= -0.2229738E+00 <-- DLTA
 ------------------------------------------------------------------------------
 Cycle:     11
  WF centre and spread    1  (  0.173851, -0.116372, -2.361545 )     0.41793827
  WF centre and spread    2  (  0.058516, -0.010395,  2.291478 )     0.42428785
  WF centre and spread    3  (  0.478781, -0.171190,  0.163140 )     2.08335992
  WF centre and spread    4  ( -0.495507, -0.161862, -0.101680 )     1.58406650
  WF centre and spread    5  (  0.276849,  0.468335,  0.148607 )     0.90854749
  WF centre and spread    6  (  0.079986, -0.052874, -2.904193 )     0.41356226
  WF centre and spread    7  ( -0.324768, -0.044417,  0.454171 )     1.19728566
  WF centre and spread    8  ( -0.158304,  0.190116,  2.688033 )     0.53009060
  WF centre and spread    9  ( -0.151859, -0.218716,  2.723438 )     0.50067706
  WF centre and spread   10  ( -0.230191, -0.069904, -2.633380 )     0.55024058
  WF centre and spread   11  ( -0.029344,  0.235657, -2.630330 )     0.54931789
  WF centre and spread   12  (  0.247091,  0.040130,  2.825769 )     0.43830440
  WF centre and spread   13  ( -0.068482, -0.585459,  0.113900 )     2.54449802
  WF centre and spread   14  (  1.278095, -0.019366,  0.160193 )     4.17954311
  WF centre and spread   15  (  0.055546,  0.221481, -0.352628 )     1.75248265
  WF centre and spread   16  ( -0.307068,  0.342728,  0.010864 )     1.73778151
  WF centre and spread   17  (  0.285649, -0.054678,  0.489583 )     1.74624585
  WF centre and spread   18  (  0.070727, -0.306390, -0.365292 )     2.13949267
  WF centre and spread   19  (  1.699297, -0.246579, -1.692547 )     5.28226649
  WF centre and spread   20  ( -0.020552,  1.437817, -0.926887 )     4.70572879
  WF centre and spread   21  (  0.752449,  1.306209, -3.317252 )     6.16530269
  Sum of centres and spreads (  3.670762,  2.184272, -5.216556 )    39.85102025
 
     11    -0.204E+00     0.2473546883       39.8510202662       0.76  <-- CONV
        O_D=      0.8081614 O_OD=     12.7402356 O_TOT=     39.8510203 <-- SPRD
 Delta: O_D=  0.9547602E-02 O_OD= -0.2130779E+00 O_TOT= -0.2035303E+00 <-- DLTA
 ------------------------------------------------------------------------------
 Cycle:     12
  WF centre and spread    1  (  0.173357, -0.115649, -2.363478 )     0.42418308
  WF centre and spread    2  (  0.058682, -0.010403,  2.293178 )     0.42763110
  WF centre and spread    3  (  0.477547, -0.170664,  0.161709 )     2.06334969
  WF centre and spread    4  ( -0.497462, -0.162840, -0.099614 )     1.59882723
  WF centre and spread    5  (  0.279604,  0.472036,  0.145268 )     0.90918521
  WF centre and spread    6  (  0.081284, -0.053309, -2.903073 )     0.41810660
  WF centre and spread    7  ( -0.324581, -0.043242,  0.453431 )     1.19981406
  WF centre and spread    8  ( -0.157530,  0.190236,  2.688436 )     0.53800492
  WF centre and spread    9  ( -0.151182, -0.218682,  2.723557 )     0.50680955
  WF centre and spread   10  ( -0.229983, -0.069649, -2.633555 )     0.55670025
  WF centre and spread   11  ( -0.028597,  0.236780, -2.630631 )     0.56259026
  WF centre and spread   12  (  0.247389,  0.040092,  2.824905 )     0.44617058
  WF centre and spread   13  ( -0.061815, -0.591696,  0.115360 )     2.48811793
  WF centre and spread   14  (  1.286688, -0.027001,  0.167546 )     4.20146096
  WF centre and spread   15  (  0.056245,  0.221492, -0.361008 )     1.69222542
  WF centre and spread   16  ( -0.307303,  0.349251,  0.007393 )     1.66452014
  WF centre and spread   17  (  0.285221, -0.055301,  0.492743 )     1.72910801
  WF centre and spread   18  (  0.069803, -0.305668, -0.362609 )     2.09958562
  WF centre and spread   19  (  1.691580, -0.250904, -1.695261 )     5.32569058
  WF centre and spread   20  ( -0.022216,  1.438957, -0.920169 )     4.67339130
  WF centre and spread   21  (  0.743674,  1.313219, -3.317994 )     6.15404080
  Sum of centres and spreads (  3.670405,  2.187057, -5.213865 )    39.67951329
 
     12    -0.172E+00     0.2280523999       39.6795133089       0.82  <-- CONV
        O_D=      0.8139151 O_OD=     12.5629749 O_TOT=     39.6795133 <-- SPRD
 Delta: O_D=  0.5753776E-02 O_OD= -0.1772607E+00 O_TOT= -0.1715070E+00 <-- DLTA
 ------------------------------------------------------------------------------
 Cycle:     13
  WF centre and spread    1  (  0.173310, -0.115623, -2.363565 )     0.42429757
  WF centre and spread    2  (  0.058678, -0.010415,  2.293214 )     0.42738252
  WF centre and spread    3  (  0.477547, -0.170712,  0.161225 )     2.05673600
  WF centre and spread    4  ( -0.497530, -0.163334, -0.099586 )     1.59791576
  WF centre and spread    5  (  0.279726,  0.472460,  0.144952 )     0.90979702
  WF centre and spread    6  (  0.081444, -0.053435, -2.902890 )     0.41786221
  WF centre and spread    7  ( -0.324537, -0.043116,  0.453362 )     1.19957887
  WF centre and spread    8  ( -0.157563,  0.190311,  2.688436 )     0.53768293
  WF centre and spread    9  ( -0.151174, -0.218752,  2.723541 )     0.50650722
  WF centre and spread   10  ( -0.230105, -0.069714, -2.633531 )     0.55624878
  WF centre and spread   11  ( -0.028559,  0.236926, -2.630582 )     0.56232983
  WF centre and spread   12  (  0.247442,  0.040077,  2.824767 )     0.44564230
  WF centre and spread   13  ( -0.061118, -0.593110,  0.116125 )     2.48016898
  WF centre and spread   14  (  1.288020, -0.027218,  0.169465 )     4.18690301
  WF centre and spread   15  (  0.056422,  0.221659, -0.362054 )     1.68423305
  WF centre and spread   16  ( -0.307403,  0.349779,  0.007042 )     1.65689414
  WF centre and spread   17  (  0.285002, -0.055547,  0.492764 )     1.72846968
  WF centre and spread   18  (  0.069818, -0.305568, -0.362750 )     2.09959851
  WF centre and spread   19  (  1.691142, -0.251554, -1.694795 )     5.32721768
  WF centre and spread   20  ( -0.022209,  1.438390, -0.919194 )     4.65598680
  WF centre and spread   21  (  0.742325,  1.314428, -3.318141 )     6.13926390
  Sum of centres and spreads (  3.670679,  2.185932, -5.212194 )    39.60071676
 
     13    -0.788E-01     0.1932626928       39.6007167801       0.88  <-- CONV
        O_D=      0.8099920 O_OD=     12.4881015 O_TOT=     39.6007168 <-- SPRD
 Delta: O_D= -0.3923109E-02 O_OD= -0.7487342E-01 O_TOT= -0.7879653E-01 <-- DLTA
 ------------------------------------------------------------------------------
 Cycle:     14
  WF centre and spread    1  (  0.173218, -0.115569, -2.363778 )     0.42489305
  WF centre and spread    2  (  0.058677, -0.010445,  2.293327 )     0.42742676
  WF centre and spread    3  (  0.477453, -0.170790,  0.160081 )     2.04829826
  WF centre and spread    4  ( -0.497617, -0.164314, -0.099622 )     1.59833336
  WF centre and spread    5  (  0.279958,  0.473381,  0.144232 )     0.91288971
  WF centre and spread    6  (  0.081805, -0.053709, -2.902500 )     0.41776324
  WF centre and spread    7  ( -0.324427, -0.042855,  0.453139 )     1.20109902
  WF centre and spread    8  ( -0.157630,  0.190479,  2.688433 )     0.53732690
  WF centre and spread    9  ( -0.151150, -0.218909,  2.723504 )     0.50629258
  WF centre and spread   10  ( -0.230383, -0.069852, -2.633483 )     0.55573649
  WF centre and spread   11  ( -0.028471,  0.237276, -2.630489 )     0.56231256
  WF centre and spread   12  (  0.247552,  0.040035,  2.824474 )     0.44511272
  WF centre and spread   13  ( -0.059591, -0.595958,  0.117627 )     2.47192012
  WF centre and spread   14  (  1.290827, -0.027868,  0.173743 )     4.17245900
  WF centre and spread   15  (  0.056837,  0.222139, -0.364499 )     1.67116145
  WF centre and spread   16  ( -0.307685,  0.351064,  0.006188 )     1.64366073
  WF centre and spread   17  (  0.284403, -0.056083,  0.492683 )     1.72968997
  WF centre and spread   18  (  0.069793, -0.305142, -0.362915 )     2.10232827
  WF centre and spread   19  (  1.690217, -0.252752, -1.693902 )     5.33979342
  WF centre and spread   20  ( -0.022195,  1.437535, -0.917212 )     4.63332364
  WF centre and spread   21  (  0.739195,  1.317154, -3.318505 )     6.12877050
  Sum of centres and spreads (  3.670786,  2.184821, -5.209475 )    39.53059177
 
     14    -0.701E-01     0.1552118789       39.5305917831       0.94  <-- CONV
        O_D=      0.8052820 O_OD=     12.4226865 O_TOT=     39.5305918 <-- SPRD
 Delta: O_D= -0.4710046E-02 O_OD= -0.6541495E-01 O_TOT= -0.7012500E-01 <-- DLTA
 ------------------------------------------------------------------------------
 Cycle:     15
  WF centre and spread    1  (  0.173111, -0.115497, -2.364095 )     0.42602284
  WF centre and spread    2  (  0.058693, -0.010481,  2.293530 )     0.42793818
  WF centre and spread    3  (  0.477277, -0.170807,  0.158487 )     2.03900115
  WF centre and spread    4  ( -0.497664, -0.165433, -0.099758 )     1.59737306
  WF centre and spread    5  (  0.280214,  0.474612,  0.143266 )     0.91749103
  WF centre and spread    6  (  0.082304, -0.054057, -2.902014 )     0.41806101
  WF centre and spread    7  ( -0.324303, -0.042512,  0.452744 )     1.20351064
  WF centre and spread    8  ( -0.157712,  0.190718,  2.688430 )     0.53713196
  WF centre and spread    9  ( -0.151106, -0.219132,  2.723458 )     0.50642127
  WF centre and spread   10  ( -0.230768, -0.070037, -2.633433 )     0.55548321
  WF centre and spread   11  ( -0.028347,  0.237791, -2.630395 )     0.56291992
  WF centre and spread   12  (  0.247691,  0.039970,  2.824097 )     0.44503796
  WF centre and spread   13  ( -0.057526, -0.599459,  0.119370 )     2.46296756
  WF centre and spread   14  (  1.294606, -0.029150,  0.179462 )     4.16990063
  WF centre and spread   15  (  0.057395,  0.222924, -0.367864 )     1.65470640
  WF centre and spread   16  ( -0.308130,  0.352990,  0.004983 )     1.62619732
  WF centre and spread   17  (  0.283521, -0.056707,  0.492438 )     1.73039829
  WF centre and spread   18  (  0.069642, -0.304418, -0.362921 )     2.10214302
  WF centre and spread   19  (  1.689104, -0.254103, -1.693050 )     5.34935934
  WF centre and spread   20  ( -0.022140,  1.437269, -0.915178 )     4.61185064
  WF centre and spread   21  (  0.735304,  1.320554, -3.319172 )     6.13610791
  Sum of centres and spreads (  3.671163,  2.185034, -5.207616 )    39.48002336
 
     15    -0.506E-01     0.1273046514       39.4800233746       1.01  <-- CONV
        O_D=      0.8055078 O_OD=     12.3718923 O_TOT=     39.4800234 <-- SPRD
 Delta: O_D=  0.2258497E-03 O_OD= -0.5079426E-01 O_TOT= -0.5056841E-01 <-- DLTA
 ------------------------------------------------------------------------------
 Cycle:     16
  WF centre and spread    1  (  0.172984, -0.115403, -2.364536 )     0.42752207
  WF centre and spread    2  (  0.058734, -0.010518,  2.293847 )     0.42874173
  WF centre and spread    3  (  0.476927, -0.170848,  0.156323 )     2.02701589
  WF centre and spread    4  ( -0.497706, -0.166730, -0.099967 )     1.59416714
  WF centre and spread    5  (  0.280498,  0.476243,  0.142026 )     0.92323294
  WF centre and spread    6  (  0.082983, -0.054491, -2.901427 )     0.41863529
  WF centre and spread    7  ( -0.324240, -0.042051,  0.452168 )     1.20642238
  WF centre and spread    8  ( -0.157818,  0.191062,  2.688436 )     0.53690199
  WF centre and spread    9  ( -0.151048, -0.219447,  2.723410 )     0.50675014
  WF centre and spread   10  ( -0.231294, -0.070302, -2.633382 )     0.55526119
  WF centre and spread   11  ( -0.028178,  0.238517, -2.630298 )     0.56409059
  WF centre and spread   12  (  0.247868,  0.039874,  2.823612 )     0.44534316
  WF centre and spread   13  ( -0.054895, -0.604041,  0.121574 )     2.45178689
  WF centre and spread   14  (  1.299409, -0.031431,  0.186886 )     4.17976595
  WF centre and spread   15  (  0.058106,  0.223977, -0.372227 )     1.63431858
  WF centre and spread   16  ( -0.308721,  0.355651,  0.003439 )     1.60231622
  WF centre and spread   17  (  0.282380, -0.057391,  0.492023 )     1.72898605
  WF centre and spread   18  (  0.069342, -0.303433, -0.362726 )     2.09834027
  WF centre and spread   19  (  1.687821, -0.255534, -1.692438 )     5.34928258
  WF centre and spread   20  ( -0.022078,  1.437905, -0.912927 )     4.59613318
  WF centre and spread   21  (  0.730465,  1.324344, -3.320215 )     6.16157857
  Sum of centres and spreads (  3.671537,  2.185951, -5.206399 )    39.43659280
 
     16    -0.434E-01     0.1163089602       39.4365928160       1.07  <-- CONV
        O_D=      0.8068015 O_OD=     12.3271680 O_TOT=     39.4365928 <-- SPRD
 Delta: O_D=  0.1293708E-02 O_OD= -0.4472427E-01 O_TOT= -0.4343056E-01 <-- DLTA
 ------------------------------------------------------------------------------
 Cycle:     17
  WF centre and spread    1  (  0.172832, -0.115279, -2.365108 )     0.42938767
  WF centre and spread    2  (  0.058802, -0.010550,  2.294294 )     0.42980653
  WF centre and spread    3  (  0.476238, -0.171018,  0.153420 )     2.01164661
  WF centre and spread    4  ( -0.497791, -0.168223, -0.100267 )     1.58930928
  WF centre and spread    5  (  0.280805,  0.478328,  0.140501 )     0.92983706
  WF centre and spread    6  (  0.083884, -0.055025, -2.900733 )     0.41944082
  WF centre and spread    7  ( -0.324343, -0.041435,  0.451436 )     1.20978157
  WF centre and spread    8  ( -0.157963,  0.191542,  2.688458 )     0.53674506
  WF centre and spread    9  ( -0.150982, -0.219877,  2.723371 )     0.50733225
  WF centre and spread   10  ( -0.231998, -0.070679, -2.633327 )     0.55512457
  WF centre and spread   11  ( -0.027952,  0.239502, -2.630189 )     0.56591677
  WF centre and spread   12  (  0.248101,  0.039743,  2.822988 )     0.44605746
  WF centre and spread   13  ( -0.051704, -0.609972,  0.124540 )     2.43810095
  WF centre and spread   14  (  1.305262, -0.035029,  0.196360 )     4.20119632
  WF centre and spread   15  (  0.058972,  0.225211, -0.377635 )     1.60918995
  WF centre and spread   16  ( -0.309407,  0.359022,  0.001611 )     1.57010366
  WF centre and spread   17  (  0.280997, -0.058127,  0.491381 )     1.72489520
  WF centre and spread   18  (  0.068912, -0.302383, -0.362380 )     2.09050951
  WF centre and spread   19  (  1.686344, -0.257140, -1.692431 )     5.33633197
  WF centre and spread   20  ( -0.021916,  1.439413, -0.910145 )     4.59142877
  WF centre and spread   21  (  0.724517,  1.328559, -3.321768 )     6.20361276
  Sum of centres and spreads (  3.671609,  2.186581, -5.205622 )    39.39575475
 
     17    -0.408E-01     0.1104600015       39.3957547620       1.13  <-- CONV
        O_D=      0.8088366 O_OD=     12.2842948 O_TOT=     39.3957548 <-- SPRD
 Delta: O_D=  0.2035108E-02 O_OD= -0.4287316E-01 O_TOT= -0.4083805E-01 <-- DLTA
 ------------------------------------------------------------------------------
 Cycle:     18
  WF centre and spread    1  (  0.172630, -0.115100, -2.365880 )     0.43175427
  WF centre and spread    2  (  0.058911, -0.010565,  2.294956 )     0.43119443
  WF centre and spread    3  (  0.475058, -0.171432,  0.149204 )     1.99034587
  WF centre and spread    4  ( -0.498000, -0.170063, -0.100766 )     1.58285201
  WF centre and spread    5  (  0.281124,  0.481093,  0.138524 )     0.93823413
  WF centre and spread    6  (  0.085159, -0.055737, -2.899853 )     0.42046377
  WF centre and spread    7  ( -0.324742, -0.040547,  0.450526 )     1.21392619
  WF centre and spread    8  ( -0.158186,  0.192268,  2.688511 )     0.53670927
  WF centre and spread    9  ( -0.150913, -0.220510,  2.723357 )     0.50828041
  WF centre and spread   10  ( -0.233020, -0.071257, -2.633255 )     0.55497731
  WF centre and spread   11  ( -0.027638,  0.240931, -2.630046 )     0.56873093
  WF centre and spread   12  (  0.248445,  0.039555,  2.822112 )     0.44733520
  WF centre and spread   13  ( -0.047589, -0.618084,  0.129036 )     2.42194571
  WF centre and spread   14  (  1.312740, -0.040585,  0.209536 )     4.23689550
  WF centre and spread   15  (  0.060124,  0.226703, -0.384820 )     1.57557666
  WF centre and spread   16  ( -0.310207,  0.363366, -0.000584 )     1.52374264
  WF centre and spread   17  (  0.279213, -0.058987,  0.490304 )     1.71726911
  WF centre and spread   18  (  0.068328, -0.301166, -0.361941 )     2.07686763
  WF centre and spread   19  (  1.684528, -0.258895, -1.693476 )     5.30807057
  WF centre and spread   20  ( -0.021610,  1.441946, -0.906295 )     4.60205687
  WF centre and spread   21  (  0.716836,  1.334024, -3.324238 )     6.26361000
  Sum of centres and spreads (  3.671189,  2.186956, -5.205086 )    39.35083844
 
     18    -0.449E-01     0.1098457472       39.3508384598       1.20  <-- CONV
        O_D=      0.8122903 O_OD=     12.2359249 O_TOT=     39.3508385 <-- SPRD
 Delta: O_D=  0.3453615E-02 O_OD= -0.4836992E-01 O_TOT= -0.4491630E-01 <-- DLTA
 ------------------------------------------------------------------------------
 Cycle:     19
  WF centre and spread    1  (  0.172611, -0.115082, -2.365947 )     0.43161848
  WF centre and spread    2  (  0.058926, -0.010560,  2.295034 )     0.43099841
  WF centre and spread    3  (  0.474890, -0.171516,  0.148730 )     1.98676690
  WF centre and spread    4  ( -0.498094, -0.170173, -0.100801 )     1.58183639
  WF centre and spread    5  (  0.281120,  0.481379,  0.138384 )     0.93759814
  WF centre and spread    6  (  0.085305, -0.055796, -2.899788 )     0.42022589
  WF centre and spread    7  ( -0.324945, -0.040458,  0.450562 )     1.21362338
  WF centre and spread    8  ( -0.158222,  0.192367,  2.688526 )     0.53649221
  WF centre and spread    9  ( -0.150908, -0.220591,  2.723368 )     0.50810418
  WF centre and spread   10  ( -0.233145, -0.071335, -2.633249 )     0.55469060
  WF centre and spread   11  ( -0.027613,  0.241079, -2.630036 )     0.56879493
  WF centre and spread   12  (  0.248489,  0.039537,  2.822027 )     0.44733742
  WF centre and spread   13  ( -0.047230, -0.618977,  0.129640 )     2.41819802
  WF centre and spread   14  (  1.313509, -0.041238,  0.210942 )     4.23929859
  WF centre and spread   15  (  0.060227,  0.226794, -0.385416 )     1.57088026
  WF centre and spread   16  ( -0.310223,  0.363777, -0.000744 )     1.51669307
  WF centre and spread   17  (  0.279135, -0.058995,  0.490149 )     1.71510631
  WF centre and spread   18  (  0.068254, -0.301232, -0.361970 )     2.07307771
  WF centre and spread   19  (  1.684481, -0.258934, -1.694108 )     5.29841522
  WF centre and spread   20  ( -0.021548,  1.442328, -0.906036 )     4.60470571
  WF centre and spread   21  (  0.716039,  1.334443, -3.324567 )     6.26384367
  Sum of centres and spreads (  3.671059,  2.186816, -5.205299 )    39.31830548
 
     19    -0.325E-01     0.1334545809       39.3183055008       1.26  <-- CONV
        O_D=      0.8096755 O_OD=     12.2060067 O_TOT=     39.3183055 <-- SPRD
 Delta: O_D= -0.2614709E-02 O_OD= -0.2991825E-01 O_TOT= -0.3253296E-01 <-- DLTA
 ------------------------------------------------------------------------------
 Cycle:     20
  WF centre and spread    1  (  0.172569, -0.115038, -2.366113 )     0.43159255
  WF centre and spread    2  (  0.058962, -0.010550,  2.295224 )     0.43087365
  WF centre and spread    3  (  0.474468, -0.171695,  0.147583 )     1.98027183
  WF centre and spread    4  ( -0.498289, -0.170454, -0.100918 )     1.58106613
  WF centre and spread    5  (  0.281104,  0.482051,  0.138038 )     0.93730269
  WF centre and spread    6  (  0.085652, -0.055942, -2.899636 )     0.41996941
  WF centre and spread    7  ( -0.325388, -0.040242,  0.450606 )     1.21387636
  WF centre and spread    8  ( -0.158310,  0.192603,  2.688562 )     0.53622370
  WF centre and spread    9  ( -0.150897, -0.220784,  2.723392 )     0.50796884
  WF centre and spread   10  ( -0.233440, -0.071520, -2.633237 )     0.55432062
  WF centre and spread   11  ( -0.027553,  0.241437, -2.630016 )     0.56915543
  WF centre and spread   12  (  0.248598,  0.039491,  2.821825 )     0.44760146
  WF centre and spread   13  ( -0.046400, -0.621088,  0.131060 )     2.41345470
  WF centre and spread   14  (  1.315342, -0.042754,  0.214294 )     4.24997995
  WF centre and spread   15  (  0.060485,  0.227014, -0.386820 )     1.56243842
  WF centre and spread   16  ( -0.310311,  0.364752, -0.001134 )     1.50236716
  WF centre and spread   17  (  0.278862, -0.059007,  0.489735 )     1.71175890
  WF centre and spread   18  (  0.068081, -0.301332, -0.361998 )     2.06689461
  WF centre and spread   19  (  1.684372, -0.258836, -1.695338 )     5.28288706
  WF centre and spread   20  ( -0.021325,  1.443319, -0.905383 )     4.61698069
  WF centre and spread   21  (  0.714216,  1.335455, -3.325359 )     6.27495100
  Sum of centres and spreads (  3.670800,  2.186879, -5.205634 )    39.29193517
 
     20    -0.264E-01     0.0949893500       39.2919351823       1.34  <-- CONV
        O_D=      0.8076469 O_OD=     12.1816650 O_TOT=     39.2919352 <-- SPRD
 Delta: O_D= -0.2028633E-02 O_OD= -0.2434169E-01 O_TOT= -0.2637032E-01 <-- DLTA
 ------------------------------------------------------------------------------
 Cycle:     21
  WF centre and spread    1  (  0.172497, -0.114967, -2.366417 )     0.43188598
  WF centre and spread    2  (  0.059025, -0.010540,  2.295555 )     0.43096894
  WF centre and spread    3  (  0.473791, -0.171950,  0.145602 )     1.96882466
  WF centre and spread    4  ( -0.498553, -0.170994, -0.101160 )     1.57997797
  WF centre and spread    5  (  0.281082,  0.483170,  0.137429 )     0.93815285
  WF centre and spread    6  (  0.086244, -0.056206, -2.899383 )     0.41988439
  WF centre and spread    7  ( -0.326051, -0.039864,  0.450586 )     1.21487903
  WF centre and spread    8  ( -0.158462,  0.193011,  2.688624 )     0.53591638
  WF centre and spread    9  ( -0.150887, -0.221121,  2.723430 )     0.50790571
  WF centre and spread   10  ( -0.233945, -0.071835, -2.633220 )     0.55391476
  WF centre and spread   11  ( -0.027450,  0.242064, -2.629992 )     0.56979118
  WF centre and spread   12  (  0.248787,  0.039409,  2.821478 )     0.44820040
  WF centre and spread   13  ( -0.045009, -0.624648,  0.133477 )     2.40664317
  WF centre and spread   14  (  1.318535, -0.045264,  0.220083 )     4.26973976
  WF centre and spread   15  (  0.060946,  0.227398, -0.389195 )     1.54935012
  WF centre and spread   16  ( -0.310557,  0.366395, -0.001793 )     1.48007898
  WF centre and spread   17  (  0.278228, -0.059018,  0.488925 )     1.70730600
  WF centre and spread   18  (  0.067783, -0.301494, -0.361969 )     2.05806213
  WF centre and spread   19  (  1.684124, -0.258805, -1.696822 )     5.26018880
  WF centre and spread   20  ( -0.020907,  1.445051, -0.904351 )     4.63528534
  WF centre and spread   21  (  0.711243,  1.337236, -3.326876 )     6.29999345
  Sum of centres and spreads (  3.670462,  2.187027, -5.205987 )    39.26695000
 
     21    -0.250E-01     0.0847260832       39.2669500123       1.40  <-- CONV
        O_D=      0.8071852 O_OD=     12.1571415 O_TOT=     39.2669500 <-- SPRD
 Delta: O_D= -0.4616742E-03 O_OD= -0.2452350E-01 O_TOT= -0.2498517E-01 <-- DLTA
 ------------------------------------------------------------------------------
 Cycle:     22
  WF centre and spread    1  (  0.172394, -0.114870, -2.366861 )     0.43259397
  WF centre and spread    2  (  0.059110, -0.010534,  2.296017 )     0.43135031
  WF centre and spread    3  (  0.472978, -0.172233,  0.142825 )     1.95190352
  WF centre and spread    4  ( -0.498835, -0.171833, -0.101569 )     1.57791878
  WF centre and spread    5  (  0.281067,  0.484673,  0.136573 )     0.94096617
  WF centre and spread    6  (  0.087068, -0.056599, -2.899034 )     0.42011934
  WF centre and spread    7  ( -0.326827, -0.039324,  0.450436 )     1.21663639
  WF centre and spread    8  ( -0.158681,  0.193591,  2.688710 )     0.53552236
  WF centre and spread    9  ( -0.150885, -0.221602,  2.723482 )     0.50785295
  WF centre and spread   10  ( -0.234657, -0.072273, -2.633201 )     0.55344576
  WF centre and spread   11  ( -0.027309,  0.242960, -2.629966 )     0.57054528
  WF centre and spread   12  (  0.249058,  0.039285,  2.820986 )     0.44908440
  WF centre and spread   13  ( -0.043129, -0.629511,  0.136883 )     2.39841584
  WF centre and spread   14  (  1.323028, -0.048405,  0.228378 )     4.29802217
  WF centre and spread   15  (  0.061615,  0.227981, -0.392515 )     1.53227746
  WF centre and spread   16  ( -0.310998,  0.368599, -0.002662 )     1.45151987
  WF centre and spread   17  (  0.277130, -0.059030,  0.487615 )     1.70219539
  WF centre and spread   18  (  0.067372, -0.301579, -0.361865 )     2.04706927
  WF centre and spread   19  (  1.683679, -0.258809, -1.698163 )     5.23402275
  WF centre and spread   20  ( -0.020387,  1.447365, -0.903154 )     4.65323421
  WF centre and spread   21  (  0.707586,  1.340085, -3.329335 )     6.33784951
  Sum of centres and spreads (  3.670376,  2.187937, -5.206421 )    39.24254571
 
     22    -0.244E-01     0.0845375855       39.2425457263       1.46  <-- CONV
        O_D=      0.8077719 O_OD=     12.1321505 O_TOT=     39.2425457 <-- SPRD
 Delta: O_D=  0.5866854E-03 O_OD= -0.2499097E-01 O_TOT= -0.2440429E-01 <-- DLTA
 ------------------------------------------------------------------------------
 Cycle:     23
  WF centre and spread    1  (  0.172229, -0.114727, -2.367533 )     0.43405112
  WF centre and spread    2  (  0.059228, -0.010538,  2.296692 )     0.43223520
  WF centre and spread    3  (  0.471940, -0.172636,  0.138629 )     1.92586179
  WF centre and spread    4  ( -0.499153, -0.173218, -0.102308 )     1.57458905
  WF centre and spread    5  (  0.281073,  0.486773,  0.135323 )     0.94750784
  WF centre and spread    6  (  0.088293, -0.057228, -2.898509 )     0.42091379
  WF centre and spread    7  ( -0.327777, -0.038514,  0.450063 )     1.21980655
  WF centre and spread    8  ( -0.159021,  0.194476,  2.688834 )     0.53509495
  WF centre and spread    9  ( -0.150894, -0.222337,  2.723565 )     0.50783940
  WF centre and spread   10  ( -0.235736, -0.072927, -2.633177 )     0.55291151
  WF centre and spread   11  ( -0.027100,  0.244324, -2.629927 )     0.57145664
  WF centre and spread   12  (  0.249474,  0.039090,  2.820226 )     0.45042128
  WF centre and spread   13  ( -0.040487, -0.636514,  0.142165 )     2.38875322
  WF centre and spread   14  (  1.329596, -0.052488,  0.241231 )     4.33834969
  WF centre and spread   15  (  0.062634,  0.228924, -0.397470 )     1.50812479
  WF centre and spread   16  ( -0.311739,  0.371625, -0.003814 )     1.41267199
  WF centre and spread   17  (  0.275220, -0.059082,  0.485342 )     1.69656699
  WF centre and spread   18  (  0.066803, -0.301576, -0.361751 )     2.03236089
  WF centre and spread   19  (  1.682793, -0.259017, -1.699411 )     5.20501917
  WF centre and spread   20  ( -0.019677,  1.450064, -0.901584 )     4.66811032
  WF centre and spread   21  (  0.702811,  1.345035, -3.333544 )     6.39139271
  Sum of centres and spreads (  3.670513,  2.189508, -5.206958 )    39.21403889
 
     23    -0.285E-01     0.0855619327       39.2140389090       1.53  <-- CONV
        O_D=      0.8100365 O_OD=     12.1013791 O_TOT=     39.2140389 <-- SPRD
 Delta: O_D=  0.2264560E-02 O_OD= -0.3077138E-01 O_TOT= -0.2850682E-01 <-- DLTA
 ------------------------------------------------------------------------------
 Cycle:     24
  WF centre and spread    1  (  0.172020, -0.114562, -2.368297 )     0.43596755
  WF centre and spread    2  (  0.059346, -0.010551,  2.297442 )     0.43342190
  WF centre and spread    3  (  0.470904, -0.173221,  0.133713 )     1.89537953
  WF centre and spread    4  ( -0.499431, -0.174957, -0.103292 )     1.57135875
  WF centre and spread    5  (  0.281104,  0.488970,  0.133967 )     0.95741042
  WF centre and spread    6  (  0.089696, -0.057993, -2.897890 )     0.42210178
  WF centre and spread    7  ( -0.328684, -0.037575,  0.449532 )     1.22413830
  WF centre and spread    8  ( -0.159432,  0.195520,  2.688977 )     0.53475043
  WF centre and spread    9  ( -0.150921, -0.223200,  2.723670 )     0.50782321
  WF centre and spread   10  ( -0.236995, -0.073695, -2.633147 )     0.55231405
  WF centre and spread   11  ( -0.026859,  0.245909, -2.629865 )     0.57216317
  WF centre and spread   12  (  0.249963,  0.038858,  2.819317 )     0.45185979
  WF centre and spread   13  ( -0.037762, -0.644314,  0.148692 )     2.38215896
  WF centre and spread   14  (  1.336618, -0.056461,  0.256503 )     4.37789169
  WF centre and spread   15  (  0.063811,  0.229996, -0.403059 )     1.48223015
  WF centre and spread   16  ( -0.312618,  0.374689, -0.004887 )     1.37231649
  WF centre and spread   17  (  0.272824, -0.059190,  0.482371 )     1.69246510
  WF centre and spread   18  (  0.066240, -0.301527, -0.361775 )     2.01826471
  WF centre and spread   19  (  1.681609, -0.259330, -1.700277 )     5.18414106
  WF centre and spread   20  ( -0.018900,  1.452152, -0.899554 )     4.67587754
  WF centre and spread   21  (  0.698061,  1.351427, -3.338958 )     6.44198288
  Sum of centres and spreads (  3.670594,  2.190947, -5.206818 )    39.18601748
 
     24    -0.280E-01     0.0935553125       39.1860174917       1.59  <-- CONV
        O_D=      0.8128385 O_OD=     12.0705558 O_TOT=     39.1860175 <-- SPRD
 Delta: O_D=  0.2801969E-02 O_OD= -0.3082339E-01 O_TOT= -0.2802142E-01 <-- DLTA
 ------------------------------------------------------------------------------
 Cycle:     25
  WF centre and spread    1  (  0.171995, -0.114553, -2.368346 )     0.43614316
  WF centre and spread    2  (  0.059347, -0.010559,  2.297472 )     0.43345366
  WF centre and spread    3  (  0.470869, -0.173358,  0.133254 )     1.89131262
  WF centre and spread    4  ( -0.499404, -0.175263, -0.103373 )     1.57099431
  WF centre and spread    5  (  0.281100,  0.489096,  0.133878 )     0.95868560
  WF centre and spread    6  (  0.089825, -0.058088, -2.897804 )     0.42220304
  WF centre and spread    7  ( -0.328696, -0.037503,  0.449482 )     1.22454207
  WF centre and spread    8  ( -0.159491,  0.195632,  2.688988 )     0.53469090
  WF centre and spread    9  ( -0.150939, -0.223290,  2.723676 )     0.50767147
  WF centre and spread   10  ( -0.237125, -0.073774, -2.633139 )     0.55212357
  WF centre and spread   11  ( -0.026847,  0.246053, -2.629843 )     0.57186163
  WF centre and spread   12  (  0.250015,  0.038837,  2.819214 )     0.45175384
  WF centre and spread   13  ( -0.037590, -0.645126,  0.149515 )     2.38110742
  WF centre and spread   14  (  1.337265, -0.056376,  0.258233 )     4.37261929
  WF centre and spread   15  (  0.063917,  0.230069, -0.403452 )     1.47996278
  WF centre and spread   16  ( -0.312661,  0.374881, -0.004955 )     1.36985789
  WF centre and spread   17  (  0.272506, -0.059211,  0.481927 )     1.69275865
  WF centre and spread   18  (  0.066247, -0.301561, -0.361941 )     2.01824118
  WF centre and spread   19  (  1.681416, -0.259473, -1.700022 )     5.18792201
  WF centre and spread   20  ( -0.018864,  1.451641, -0.899205 )     4.66954282
  WF centre and spread   21  (  0.697854,  1.352196, -3.339605 )     6.43649634
  Sum of centres and spreads (  3.670736,  2.190272, -5.206045 )    39.16394427
 
     25    -0.221E-01     0.1050130163       39.1639442873       1.65  <-- CONV
        O_D=      0.8120771 O_OD=     12.0492439 O_TOT=     39.1639443 <-- SPRD
 Delta: O_D= -0.7613303E-03 O_OD= -0.2131187E-01 O_TOT= -0.2207320E-01 <-- DLTA
 ------------------------------------------------------------------------------
 Cycle:     26
  WF centre and spread    1  (  0.171935, -0.114530, -2.368474 )     0.43667201
  WF centre and spread    2  (  0.059352, -0.010578,  2.297558 )     0.43370385
  WF centre and spread    3  (  0.470755, -0.173654,  0.132107 )     1.88318227
  WF centre and spread    4  ( -0.499329, -0.175959, -0.103612 )     1.57053728
  WF centre and spread    5  (  0.281088,  0.489403,  0.133655 )     0.96221007
  WF centre and spread    6  (  0.090140, -0.058317, -2.897600 )     0.42257160
  WF centre and spread    7  ( -0.328728, -0.037322,  0.449333 )     1.22611949
  WF centre and spread    8  ( -0.159630,  0.195904,  2.689016 )     0.53461934
  WF centre and spread    9  ( -0.150977, -0.223510,  2.723688 )     0.50743062
  WF centre and spread   10  ( -0.237444, -0.073965, -2.633122 )     0.55180183
  WF centre and spread   11  ( -0.026813,  0.246415, -2.629798 )     0.57130652
  WF centre and spread   12  (  0.250139,  0.038784,  2.818965 )     0.45169290
  WF centre and spread   13  ( -0.037181, -0.646971,  0.151406 )     2.38101372
  WF centre and spread   14  (  1.338783, -0.056194,  0.262446 )     4.36657534
  WF centre and spread   15  (  0.064184,  0.230292, -0.404437 )     1.47584008
  WF centre and spread   16  ( -0.312802,  0.375381, -0.005140 )     1.36482578
  WF centre and spread   17  (  0.271693, -0.059241,  0.480801 )     1.69404436
  WF centre and spread   18  (  0.066238, -0.301565, -0.362294 )     2.01867540
  WF centre and spread   19  (  1.680989, -0.259691, -1.699419 )     5.19899280
  WF centre and spread   20  ( -0.018764,  1.450657, -0.898491 )     4.65919675
  WF centre and spread   21  (  0.697172,  1.354052, -3.341227 )     6.43184935
  Sum of centres and spreads (  3.670803,  2.189392, -5.204640 )    39.14286135
 
     26    -0.211E-01     0.0836526207       39.1428613703       1.72  <-- CONV
        O_D=      0.8113190 O_OD=     12.0289190 O_TOT=     39.1428614 <-- SPRD
 Delta: O_D= -0.7580809E-03 O_OD= -0.2032484E-01 O_TOT= -0.2108292E-01 <-- DLTA
 ------------------------------------------------------------------------------
 Cycle:     27
  WF centre and spread    1  (  0.171857, -0.114498, -2.368674 )     0.43745610
  WF centre and spread    2  (  0.059367, -0.010602,  2.297701 )     0.43414371
  WF centre and spread    3  (  0.470600, -0.173981,  0.130468 )     1.87214675
  WF centre and spread    4  ( -0.499217, -0.176828, -0.104003 )     1.56876244
  WF centre and spread    5  (  0.281070,  0.489847,  0.133334 )     0.96701653
  WF centre and spread    6  (  0.090590, -0.058627, -2.897330 )     0.42317102
  WF centre and spread    7  ( -0.328798, -0.037058,  0.449088 )     1.22835458
  WF centre and spread    8  ( -0.159816,  0.196288,  2.689055 )     0.53450347
  WF centre and spread    9  ( -0.151018, -0.223822,  2.723707 )     0.50718642
  WF centre and spread   10  ( -0.237892, -0.074230, -2.633106 )     0.55145253
  WF centre and spread   11  ( -0.026757,  0.246939, -2.629754 )     0.57075186
  WF centre and spread   12  (  0.250308,  0.038705,  2.818624 )     0.45180731
  WF centre and spread   13  ( -0.036614, -0.649367,  0.153853 )     2.38068937
  WF centre and spread   14  (  1.341002, -0.056100,  0.268357 )     4.36576859
  WF centre and spread   15  (  0.064567,  0.230667, -0.405838 )     1.47021663
  WF centre and spread   16  ( -0.313048,  0.376162, -0.005418 )     1.35769342
  WF centre and spread   17  (  0.270535, -0.059211,  0.479167 )     1.69507237
  WF centre and spread   18  (  0.066166, -0.301533, -0.362704 )     2.01740655
  WF centre and spread   19  (  1.680414, -0.260002, -1.698652 )     5.20909718
  WF centre and spread   20  ( -0.018608,  1.449853, -0.897894 )     4.64812720
  WF centre and spread   21  (  0.696332,  1.356483, -3.343580 )     6.43599270
  Sum of centres and spreads (  3.671041,  2.189086, -5.203602 )    39.12681675
 
     27    -0.160E-01     0.0704953674       39.1268167703       1.78  <-- CONV
        O_D=      0.8121698 O_OD=     12.0120237 O_TOT=     39.1268168 <-- SPRD
 Delta: O_D=  0.8507257E-03 O_OD= -0.1689533E-01 O_TOT= -0.1604460E-01 <-- DLTA
 ------------------------------------------------------------------------------
 Cycle:     28
  WF centre and spread    1  (  0.171754, -0.114449, -2.368963 )     0.43840953
  WF centre and spread    2  (  0.059394, -0.010628,  2.297925 )     0.43470481
  WF centre and spread    3  (  0.470379, -0.174384,  0.128223 )     1.85713670
  WF centre and spread    4  ( -0.499083, -0.177900, -0.104552 )     1.56537716
  WF centre and spread    5  (  0.281048,  0.490457,  0.132907 )     0.97293738
  WF centre and spread    6  (  0.091206, -0.059031, -2.896985 )     0.42393064
  WF centre and spread    7  ( -0.328966, -0.036684,  0.448751 )     1.23112173
  WF centre and spread    8  ( -0.160059,  0.196811,  2.689113 )     0.53420932
  WF centre and spread    9  ( -0.151062, -0.224245,  2.723737 )     0.50686401
  WF centre and spread   10  ( -0.238496, -0.074597, -2.633093 )     0.55094955
  WF centre and spread   11  ( -0.026671,  0.247658, -2.629712 )     0.57013896
  WF centre and spread   12  (  0.250531,  0.038596,  2.818171 )     0.45207351
  WF centre and spread   13  ( -0.035895, -0.652546,  0.157044 )     2.37996135
  WF centre and spread   14  (  1.343957, -0.056258,  0.276263 )     4.37068507
  WF centre and spread   15  (  0.065081,  0.231183, -0.407680 )     1.46278876
[...]
  WF centre and spread    6  (  0.152665, -0.093811, -2.851476 )     0.45317851
  WF centre and spread    7  ( -0.344996,  0.018089,  0.499676 )     1.52987647
  WF centre and spread    8  ( -0.170813,  0.236937,  2.703942 )     0.48977501
  WF centre and spread    9  ( -0.143499, -0.249714,  2.730236 )     0.48551612
  WF centre and spread   10  ( -0.276558, -0.109999, -2.655452 )     0.50144413
  WF centre and spread   11  ( -0.015020,  0.296345, -2.647204 )     0.52066988
  WF centre and spread   12  (  0.265678,  0.024440,  2.777920 )     0.48443487
  WF centre and spread   13  ( -0.060381, -0.755329,  0.414206 )     3.04031078
  WF centre and spread   14  (  1.385666, -0.033148,  0.605397 )     4.48077415
  WF centre and spread   15  (  0.075416,  0.223345, -0.438236 )     1.34397962
  WF centre and spread   16  ( -0.334946,  0.420391, -0.047349 )     1.02561751
  WF centre and spread   17  (  0.234555, -0.033973,  0.347456 )     1.68757746
  WF centre and spread   18  (  0.044710, -0.339121, -0.387052 )     1.74776751
  WF centre and spread   19  (  1.630877, -0.258815, -1.690196 )     5.24992260
  WF centre and spread   20  (  0.000381,  1.448097, -0.891302 )     4.76830851
  WF centre and spread   21  (  0.716385,  1.476410, -3.721871 )     5.92719283
  Sum of centres and spreads (  3.674619,  2.182529, -5.200751 )    38.63893431
 
    193    -0.639E-03     0.0186360632       38.6389343244      12.28  <-- CONV
        O_D=      0.8476176 O_OD=     11.4886934 O_TOT=     38.6389343 <-- SPRD
 Delta: O_D=  0.3014843E-04 O_OD= -0.6693398E-03 O_TOT= -0.6391913E-03 <-- DLTA
 ------------------------------------------------------------------------------
 Cycle:    194
  WF centre and spread    1  (  0.136810, -0.092609, -2.374473 )     0.47699890
  WF centre and spread    2  (  0.046641, -0.011240,  2.316402 )     0.45662204
  WF centre and spread    3  (  0.500097, -0.192330, -0.010654 )     1.32401933
  WF centre and spread    4  ( -0.445955, -0.279330,  0.023810 )     1.53699894
  WF centre and spread    5  (  0.276896,  0.487773,  0.095496 )     1.10869032
  WF centre and spread    6  (  0.152790, -0.093880, -2.851368 )     0.45324199
  WF centre and spread    7  ( -0.344928,  0.018250,  0.499773 )     1.53092653
  WF centre and spread    8  ( -0.170803,  0.236972,  2.703985 )     0.48977059
  WF centre and spread    9  ( -0.143483, -0.249722,  2.730252 )     0.48551669
  WF centre and spread   10  ( -0.276575, -0.110040, -2.655546 )     0.50141762
  WF centre and spread   11  ( -0.015011,  0.296376, -2.647280 )     0.52063105
  WF centre and spread   12  (  0.265704,  0.024414,  2.777851 )     0.48446621
  WF centre and spread   13  ( -0.060538, -0.755295,  0.414525 )     3.04152329
  WF centre and spread   14  (  1.385430, -0.033072,  0.605369 )     4.48001293
  WF centre and spread   15  (  0.075390,  0.223253, -0.438285 )     1.34418028
  WF centre and spread   16  ( -0.334952,  0.420351, -0.047460 )     1.02588667
  WF centre and spread   17  (  0.234580, -0.034058,  0.347603 )     1.68746382
  WF centre and spread   18  (  0.044647, -0.339143, -0.387004 )     1.74813750
  WF centre and spread   19  (  1.630875, -0.258853, -1.690093 )     5.25294046
  WF centre and spread   20  (  0.000352,  1.447789, -0.891164 )     4.76704526
  WF centre and spread   21  (  0.716629,  1.476715, -3.722321 )     5.92176675
  Sum of centres and spreads (  3.674598,  2.182318, -5.200582 )    38.63825717
 
    194    -0.677E-03     0.0141742547       38.6382571919      12.34  <-- CONV
        O_D=      0.8477092 O_OD=     11.4879247 O_TOT=     38.6382572 <-- SPRD
 Delta: O_D=  0.9158680E-04 O_OD= -0.7687192E-03 O_TOT= -0.6771324E-03 <-- DLTA
 ------------------------------------------------------------------------------
 Cycle:    195
  WF centre and spread    1  (  0.136634, -0.092500, -2.374351 )     0.47707695
  WF centre and spread    2  (  0.046556, -0.011234,  2.316396 )     0.45667593
  WF centre and spread    3  (  0.500156, -0.192293, -0.010950 )     1.32400130
  WF centre and spread    4  ( -0.445822, -0.279569,  0.024137 )     1.53725530
  WF centre and spread    5  (  0.276952,  0.487724,  0.095389 )     1.10897251
  WF centre and spread    6  (  0.152973, -0.093981, -2.851212 )     0.45333706
  WF centre and spread    7  ( -0.344839,  0.018492,  0.499920 )     1.53237770
  WF centre and spread    8  ( -0.170787,  0.237024,  2.704048 )     0.48975478
  WF centre and spread    9  ( -0.143458, -0.249736,  2.730274 )     0.48551651
  WF centre and spread   10  ( -0.276600, -0.110101, -2.655684 )     0.50137690
  WF centre and spread   11  ( -0.014996,  0.296424, -2.647395 )     0.52057393
  WF centre and spread   12  (  0.265743,  0.024375,  2.777751 )     0.48451941
  WF centre and spread   13  ( -0.060762, -0.755247,  0.414960 )     3.04318901
  WF centre and spread   14  (  1.385137, -0.032985,  0.605333 )     4.47953193
  WF centre and spread   15  (  0.075352,  0.223126, -0.438355 )     1.34448489
  WF centre and spread   16  ( -0.334964,  0.420292, -0.047622 )     1.02619287
  WF centre and spread   17  (  0.234613, -0.034182,  0.347816 )     1.68718069
  WF centre and spread   18  (  0.044550, -0.339171, -0.386926 )     1.74853848
  WF centre and spread   19  (  1.630843, -0.258934, -1.689933 )     5.25661788
  WF centre and spread   20  (  0.000314,  1.447478, -0.891029 )     4.76528094
  WF centre and spread   21  (  0.716977,  1.477170, -3.722997 )     5.91522253
  Sum of centres and spreads (  3.674570,  2.182171, -5.200429 )    38.63767749
 
    195    -0.580E-03     0.0133189777       38.6376775106      12.40  <-- CONV
        O_D=      0.8478371 O_OD=     11.4872172 O_TOT=     38.6376775 <-- SPRD
 Delta: O_D=  0.1278764E-03 O_OD= -0.7075578E-03 O_TOT= -0.5796814E-03 <-- DLTA
 ------------------------------------------------------------------------------
 Cycle:    196
  WF centre and spread    1  (  0.136395, -0.092350, -2.374189 )     0.47716047
  WF centre and spread    2  (  0.046441, -0.011226,  2.316391 )     0.45673646
  WF centre and spread    3  (  0.500241, -0.192232, -0.011348 )     1.32380129
  WF centre and spread    4  ( -0.445649, -0.279870,  0.024585 )     1.53744343
  WF centre and spread    5  (  0.277029,  0.487669,  0.095243 )     1.10919904
  WF centre and spread    6  (  0.153225, -0.094116, -2.851004 )     0.45345645
  WF centre and spread    7  ( -0.344746,  0.018823,  0.500129 )     1.53422435
  WF centre and spread    8  ( -0.170764,  0.237093,  2.704135 )     0.48971589
  WF centre and spread    9  ( -0.143423, -0.249758,  2.730305 )     0.48551340
  WF centre and spread   10  ( -0.276635, -0.110183, -2.655872 )     0.50131273
  WF centre and spread   11  ( -0.014976,  0.296489, -2.647552 )     0.52049547
  WF centre and spread   12  (  0.265795,  0.024322,  2.777618 )     0.48459437
  WF centre and spread   13  ( -0.061057, -0.755208,  0.415537 )     3.04550249
  WF centre and spread   14  (  1.384800, -0.032910,  0.605280 )     4.47963680
  WF centre and spread   15  (  0.075299,  0.222958, -0.438445 )     1.34483524
  WF centre and spread   16  ( -0.334985,  0.420215, -0.047839 )     1.02647563
  WF centre and spread   17  (  0.234665, -0.034351,  0.348106 )     1.68663464
  WF centre and spread   18  (  0.044412, -0.339211, -0.386812 )     1.74894295
  WF centre and spread   19  (  1.630776, -0.259051, -1.689733 )     5.26033618
  WF centre and spread   20  (  0.000286,  1.447229, -0.890901 )     4.76342269
  WF centre and spread   21  (  0.717434,  1.477745, -3.723921 )     5.90769616
  Sum of centres and spreads (  3.674563,  2.182078, -5.200289 )    38.63713613
 
    196    -0.541E-03     0.0127985955       38.6371361463      12.46  <-- CONV
        O_D=      0.8479778 O_OD=     11.4865350 O_TOT=     38.6371361 <-- SPRD
 Delta: O_D=  0.1407716E-03 O_OD= -0.6821359E-03 O_TOT= -0.5413643E-03 <-- DLTA
 ------------------------------------------------------------------------------
 Cycle:    197
  WF centre and spread    1  (  0.136096, -0.092163, -2.373992 )     0.47723008
  WF centre and spread    2  (  0.046301, -0.011214,  2.316392 )     0.45679736
  WF centre and spread    3  (  0.500351, -0.192152, -0.011846 )     1.32350555
  WF centre and spread    4  ( -0.445434, -0.280220,  0.025148 )     1.53761075
  WF centre and spread    5  (  0.277126,  0.487611,  0.095063 )     1.10927087
  WF centre and spread    6  (  0.153541, -0.094284, -2.850751 )     0.45358915
  WF centre and spread    7  ( -0.344673,  0.019237,  0.500407 )     1.53641803
  WF centre and spread    8  ( -0.170735,  0.237179,  2.704244 )     0.48964691
  WF centre and spread    9  ( -0.143379, -0.249786,  2.730343 )     0.48550774
  WF centre and spread   10  ( -0.276678, -0.110286, -2.656108 )     0.50122435
  WF centre and spread   11  ( -0.014951,  0.296570, -2.647751 )     0.52039987
  WF centre and spread   12  (  0.265860,  0.024255,  2.777454 )     0.48469304
  WF centre and spread   13  ( -0.061419, -0.755213,  0.416268 )     3.04871548
  WF centre and spread   14  (  1.384436, -0.032878,  0.605196 )     4.48054354
  WF centre and spread   15  (  0.075232,  0.222751, -0.438546 )     1.34514907
  WF centre and spread   16  ( -0.335013,  0.420120, -0.048104 )     1.02665695
  WF centre and spread   17  (  0.234745, -0.034565,  0.348470 )     1.68576499
  WF centre and spread   18  (  0.044233, -0.339271, -0.386665 )     1.74933646
  WF centre and spread   19  (  1.630677, -0.259170, -1.689565 )     5.26328395
  WF centre and spread   20  (  0.000288,  1.447086, -0.890769 )     4.76216502
  WF centre and spread   21  (  0.717953,  1.478392, -3.725056 )     5.89912322
  Sum of centres and spreads (  3.674557,  2.181998, -5.200170 )    38.63663237
 
    197    -0.504E-03     0.0122703357       38.6366323873      12.53  <-- CONV
        O_D=      0.8480984 O_OD=     11.4859107 O_TOT=     38.6366324 <-- SPRD
 Delta: O_D=  0.1205595E-03 O_OD= -0.6243185E-03 O_TOT= -0.5037590E-03 <-- DLTA
 ------------------------------------------------------------------------------
 Cycle:    198
  WF centre and spread    1  (  0.135690, -0.091906, -2.373730 )     0.47727582
  WF centre and spread    2  (  0.046111, -0.011196,  2.316401 )     0.45686129
  WF centre and spread    3  (  0.500503, -0.192044, -0.012528 )     1.32323195
  WF centre and spread    4  ( -0.445140, -0.280672,  0.025912 )     1.53782965
  WF centre and spread    5  (  0.277256,  0.487538,  0.094824 )     1.10910220
  WF centre and spread    6  (  0.153975, -0.094512, -2.850413 )     0.45374868
  WF centre and spread    7  ( -0.344633,  0.019804,  0.500802 )     1.53930361
  WF centre and spread    8  ( -0.170694,  0.237296,  2.704393 )     0.48952723
  WF centre and spread    9  ( -0.143319, -0.249827,  2.730396 )     0.48549514
  WF centre and spread   10  ( -0.276739, -0.110426, -2.656431 )     0.50109732
  WF centre and spread   11  ( -0.014917,  0.296681, -2.648022 )     0.52027789
  WF centre and spread   12  (  0.265948,  0.024164,  2.777237 )     0.48483233
  WF centre and spread   13  ( -0.061918, -0.755277,  0.417285 )     3.05361651
  WF centre and spread   14  (  1.384010, -0.032901,  0.605064 )     4.48259713
  WF centre and spread   15  (  0.075143,  0.222464, -0.438675 )     1.34539735
  WF centre and spread   16  ( -0.335047,  0.419987, -0.048455 )     1.02668282
  WF centre and spread   17  (  0.234870, -0.034863,  0.348965 )     1.68433637
  WF centre and spread   18  (  0.043985, -0.339367, -0.386460 )     1.74971713
  WF centre and spread   19  (  1.630538, -0.259262, -1.689487 )     5.26544695
  WF centre and spread   20  (  0.000325,  1.447048, -0.890613 )     4.76189691
  WF centre and spread   21  (  0.718595,  1.479210, -3.726557 )     5.88781218
  Sum of centres and spreads (  3.674543,  2.181937, -5.200092 )    38.63608648
 
    198    -0.546E-03     0.0122579269       38.6360864930      12.59  <-- CONV
        O_D=      0.8481540 O_OD=     11.4853093 O_TOT=     38.6360865 <-- SPRD
 Delta: O_D=  0.5555322E-04 O_OD= -0.6014476E-03 O_TOT= -0.5458944E-03 <-- DLTA
 ------------------------------------------------------------------------------
 Cycle:    199
  WF centre and spread    1  (  0.135652, -0.091882, -2.373707 )     0.47725480
  WF centre and spread    2  (  0.046095, -0.011194,  2.316406 )     0.45685589
  WF centre and spread    3  (  0.500519, -0.192035, -0.012593 )     1.32326247
  WF centre and spread    4  ( -0.445112, -0.280703,  0.025984 )     1.53782715
  WF centre and spread    5  (  0.277267,  0.487535,  0.094805 )     1.10896034
  WF centre and spread    6  (  0.154017, -0.094533, -2.850385 )     0.45375029
  WF centre and spread    7  ( -0.344655,  0.019858,  0.500845 )     1.53951346
  WF centre and spread    8  ( -0.170690,  0.237306,  2.704407 )     0.48950215
  WF centre and spread    9  ( -0.143314, -0.249831,  2.730401 )     0.48548755
  WF centre and spread   10  ( -0.276745, -0.110439, -2.656461 )     0.50107944
  WF centre and spread   11  ( -0.014914,  0.296691, -2.648047 )     0.52026933
  WF centre and spread   12  (  0.265956,  0.024156,  2.777219 )     0.48484364
  WF centre and spread   13  ( -0.061968, -0.755304,  0.417388 )     3.05426753
  WF centre and spread   14  (  1.383999, -0.032929,  0.605045 )     4.48304963
  WF centre and spread   15  (  0.075136,  0.222434, -0.438685 )     1.34530780
  WF centre and spread   16  ( -0.335048,  0.419972, -0.048484 )     1.02657044
  WF centre and spread   17  (  0.234889, -0.034893,  0.349010 )     1.68407705
  WF centre and spread   18  (  0.043960, -0.339381, -0.386437 )     1.74964596
  WF centre and spread   19  (  1.630527, -0.259235, -1.689552 )     5.26488502
  WF centre and spread   20  (  0.000338,  1.447108, -0.890609 )     4.76239194
  WF centre and spread   21  (  0.718621,  1.479262, -3.726678 )     5.88675198
  Sum of centres and spreads (  3.674532,  2.181964, -5.200131 )    38.63555384
 
    199    -0.533E-03     0.0179418673       38.6355538613      12.65  <-- CONV
        O_D=      0.8480470 O_OD=     11.4848836 O_TOT=     38.6355539 <-- SPRD
 Delta: O_D= -0.1069241E-03 O_OD= -0.4257076E-03 O_TOT= -0.5326316E-03 <-- DLTA
 ------------------------------------------------------------------------------
 Cycle:    200
  WF centre and spread    1  (  0.135542, -0.091812, -2.373641 )     0.47720673
  WF centre and spread    2  (  0.046046, -0.011186,  2.316417 )     0.45684772
  WF centre and spread    3  (  0.500564, -0.192006, -0.012779 )     1.32331724
  WF centre and spread    4  ( -0.445033, -0.280794,  0.026193 )     1.53785674
  WF centre and spread    5  (  0.277301,  0.487523,  0.094747 )     1.10861416
  WF centre and spread    6  (  0.154138, -0.094593, -2.850303 )     0.45376341
  WF centre and spread    7  ( -0.344711,  0.020015,  0.500969 )     1.54015510
  WF centre and spread    8  ( -0.170679,  0.237336,  2.704448 )     0.48943910
  WF centre and spread    9  ( -0.143297, -0.249845,  2.730415 )     0.48547269
  WF centre and spread   10  ( -0.276763, -0.110476, -2.656549 )     0.50103337
  WF centre and spread   11  ( -0.014905,  0.296719, -2.648121 )     0.52024547
  WF centre and spread   12  (  0.265980,  0.024132,  2.777166 )     0.48488277
  WF centre and spread   13  ( -0.062108, -0.755383,  0.417684 )     3.05617528
  WF centre and spread   14  (  1.383963, -0.033004,  0.604991 )     4.48442607
  WF centre and spread   15  (  0.075116,  0.222350, -0.438713 )     1.34514293
  WF centre and spread   16  ( -0.335051,  0.419932, -0.048568 )     1.02631338
  WF centre and spread   17  (  0.234945, -0.034979,  0.349142 )     1.68339561
  WF centre and spread   18  (  0.043888, -0.339421, -0.386373 )     1.74953809
  WF centre and spread   19  (  1.630488, -0.259180, -1.689706 )     5.26352979
  WF centre and spread   20  (  0.000383,  1.447268, -0.890597 )     4.76373919
  WF centre and spread   21  (  0.718713,  1.479414, -3.727033 )     5.88397616
  Sum of centres and spreads (  3.674518,  2.182011, -5.200211 )    38.63507101
 
    200    -0.483E-03     0.0120515200       38.6350710233      12.71  <-- CONV
        O_D=      0.8478896 O_OD=     11.4845581 O_TOT=     38.6350710 <-- SPRD
 Delta: O_D= -0.1574216E-03 O_OD= -0.3254164E-03 O_TOT= -0.4828380E-03 <-- DLTA
 ------------------------------------------------------------------------------

 done

 Final State
  WF centre and spread    1  (  0.135542, -0.091812, -2.373641 )     0.47720673
  WF centre and spread    2  (  0.046046, -0.011186,  2.316417 )     0.45684772
  WF centre and spread    3  (  0.500564, -0.192006, -0.012779 )     1.32331724
  WF centre and spread    4  ( -0.445033, -0.280794,  0.026193 )     1.53785674
  WF centre and spread    5  (  0.277301,  0.487523,  0.094747 )     1.10861416
  WF centre and spread    6  (  0.154138, -0.094593, -2.850303 )     0.45376341
  WF centre and spread    7  ( -0.344711,  0.020015,  0.500969 )     1.54015510
  WF centre and spread    8  ( -0.170679,  0.237336,  2.704448 )     0.48943910
  WF centre and spread    9  ( -0.143297, -0.249845,  2.730415 )     0.48547269
  WF centre and spread   10  ( -0.276763, -0.110476, -2.656549 )     0.50103337
  WF centre and spread   11  ( -0.014905,  0.296719, -2.648121 )     0.52024547
  WF centre and spread   12  (  0.265980,  0.024132,  2.777166 )     0.48488277
  WF centre and spread   13  ( -0.062108, -0.755383,  0.417684 )     3.05617528
  WF centre and spread   14  (  1.383963, -0.033004,  0.604991 )     4.48442607
  WF centre and spread   15  (  0.075116,  0.222350, -0.438713 )     1.34514293
  WF centre and spread   16  ( -0.335051,  0.419932, -0.048568 )     1.02631338
  WF centre and spread   17  (  0.234945, -0.034979,  0.349142 )     1.68339561
  WF centre and spread   18  (  0.043888, -0.339421, -0.386373 )     1.74953809
  WF centre and spread   19  (  1.630488, -0.259180, -1.689706 )     5.26352979
  WF centre and spread   20  (  0.000383,  1.447268, -0.890597 )     4.76373919
  WF centre and spread   21  (  0.718713,  1.479414, -3.727033 )     5.88397616
  Sum of centres and spreads (  3.674518,  2.182011, -5.200211 )    38.63507101
 
         Spreads (Ang^2)       Omega I      =    26.302623279
        ================       Omega D      =     0.847889605
                               Omega OD     =    11.484558139
    Final Spread (Ang^2)       Omega Total  =    38.635071023
 ------------------------------------------------------------------------------

 Wannier centres written to file aiida_centres.xyz
 Time for wannierise           12.790 (sec)

 done

 *---------------------------------------------------------------------------*
 |                               PLOTTING                                    |
 *---------------------------------------------------------------------------*
 
 
 Calculating interpolated band-structure
 
 Time to calculate interpolated band structure       9.615 (sec)
 
 Time for plotting             95.811 (sec)
 Total Execution Time         114.280 (sec)

 *===========================================================================*
 |                             TIMING INFORMATION                            |
 *===========================================================================*
 |    Tag                                                Ncalls      Time (s)|
 |---------------------------------------------------------------------------|
 |kmesh: get                                        :         1         0.281|
 |overlap: allocate                                 :         1         0.002|
 |overlap: read                                     :         1         4.915|
 |dis: main                                         :         1         0.358|
 |wann: main                                        :         1        12.789|
 |plot: main                                        :         1        95.811|
 *---------------------------------------------------------------------------*
 
 All done: wannier90 exiting
