 
             +---------------------------------------------------+
             |                                                   |
             |                   WANNIER90                       |
             |                                                   |
             +---------------------------------------------------+
             |                                                   |
             |        Welcome to the Maximally-Localized         |
             |        Generalized Wannier Functions code         |
             |            http://www.wannier.org                 |
             |                                                   |
             |                                                   |
             |  Wannier90 Developer Group:                       |
             |    Giovanni Pizzi    (EPFL)                       |
             |    Valerio Vitale    (Cambridge)                  |
             |    David Vanderbilt  (Rutgers University)         |
             |    Nicola Marzari    (EPFL)                       |
             |    Ivo Souza         (Universidad del Pais Vasco) |
             |    Arash A. Mostofi  (Imperial College London)    |
             |    Jonathan R. Yates (University of Oxford)       |
             |                                                   |
             |  For the full list of Wannier90 3.x authors,      |
             |  please check the code documentation and the      |
             |  README on the GitHub page of the code            |
             |                                                   |
             |                                                   |
             |  Please cite                                      |
             |                                                   |
             |  [ref] "Wannier90 as a community code:            |
             |        new features and applications",            |
             |        G. Pizzi et al., J. Phys. Cond. Matt. 32,  |
             |        165902 (2020).                             |
             |        http://doi.org/10.1088/1361-648X/ab51ff    |
             |                                                   |
             |  in any publications arising from the use of      |
             |  this code. For the method please cite            |
             |                                                   |
             |  [ref] "Maximally Localized Generalised Wannier   |
             |         Functions for Composite Energy Bands"     |
             |         N. Marzari and D. Vanderbilt              |
             |         Phys. Rev. B 56 12847 (1997)              |
             |                                                   |
             |  [ref] "Maximally Localized Wannier Functions     |
             |         for Entangled Energy Bands"               |
             |         I. Souza, N. Marzari and D. Vanderbilt    |
             |         Phys. Rev. B 65 035109 (2001)             |
             |                                                   |
             |                                                   |
             | Copyright (c) 1996-2020                           |
             |        The Wannier90 Developer Group and          |
             |        individual contributors                    |
             |                                                   |
             |      Release: 3.1.0        5th March    2020      |
             |                                                   |
             | This program is free software; you can            |
             | redistribute it and/or modify it under the terms  |
             | of the GNU General Public License as published by |
             | the Free Software Foundation; either version 2 of |
             | the License, or (at your option) any later version|
             |                                                   |
             | This program is distributed in the hope that it   |
             | will be useful, but WITHOUT ANY WARRANTY; without |
             | even the implied warranty of MERCHANTABILITY or   |
             | FITNESS FOR A PARTICULAR PURPOSE. See the GNU     |
             | General Public License for more details.          |
             |                                                   |
             | You should have received a copy of the GNU General|
             | Public License along with this program; if not,   |
             | write to the Free Software Foundation, Inc.,      |
             | 675 Mass Ave, Cambridge, MA 02139, USA.           |
             |                                                   |
             +---------------------------------------------------+
             |    Execution started on  5Nov2021 at 19:24:09     |
             +---------------------------------------------------+
 
 ******************************************************************************
 * -> Using CODATA 2006 constant values                                       *
 *    (http://physics.nist.gov/cuu/Constants/index.html)                      *
 * -> Using Bohr value from CODATA                                            *
 ******************************************************************************
 

 Running in parallel on   8 CPUs

 
                                    ------
                                    SYSTEM
                                    ------
 
                              Lattice Vectors (Ang)
                    a_1     0.000000   2.815920   2.815920
                    a_2     2.815920   0.000000   2.815920
                    a_3     2.815920   2.815920   0.000000
 
                   Unit Cell Volume:      44.65714  (Ang^3)
 
                        Reciprocal-Space Vectors (Ang^-1)
                    b_1    -1.115654   1.115654   1.115654
                    b_2     1.115654  -1.115654   1.115654
                    b_3     1.115654   1.115654  -1.115654
  
 *----------------------------------------------------------------------------*
 |   Site       Fractional Coordinate          Cartesian Coordinate (Ang)     |
 +----------------------------------------------------------------------------+
 | Ca   1   0.00000   0.00000   0.00000   |    0.00000   0.00000   0.00000    |
 | S    1  -0.50000   0.50000   0.50000   |    2.81592   0.00000   0.00000    |
 *----------------------------------------------------------------------------*
                                ------------
                                K-POINT GRID
                                ------------
  
             Grid size = 10 x 10 x 10      Total points = 1000
  
  
 *---------------------------------- MAIN ------------------------------------*
 |  Number of Wannier Functions               :                10             |
 |  Number of Objective Wannier Functions     :                10             |
 |  Number of input Bloch states              :                24             |
 |  Output verbosity (1=low, 5=high)          :                 1             |
 |  Timing Level (1=low, 5=high)              :                 1             |
 |  Optimisation (0=memory, 3=speed)          :                 3             |
 |  Length Unit                               :               Ang             |
 |  Post-processing setup (write *.nnkp)      :                 F             |
 |  Using Gamma-only branch of algorithms     :                 F             |
 |  Wavefunction (UNK) file-type              :       unformatted             |
 |  Wavefunction spin channel                 :                up             |
 *----------------------------------------------------------------------------*
 *------------------------------- WANNIERISE ---------------------------------*
 |  Total number of iterations                :              4000             |
 |  Number of CG steps before reset           :               200             |
 |  Trial step length for line search         :             2.000             |
 |  Convergence tolerence                     :         0.200E-06             |
 |  Convergence window                        :                 3             |
 |  Iterations between writing output         :                 1             |
 |  Iterations between backing up to disk     :               100             |
 |  Write r^2_nm to file                      :                 F             |
 |  Write xyz WF centres to file              :                 F             |
 |  Write on-site energies <0n|H|0n> to file  :                 F             |
 |  Use guiding centre to control phases      :                 F             |
 |  Use phases for initial projections        :                 F             |
 *----------------------------------------------------------------------------*
 *------------------------------- DISENTANGLE --------------------------------*
 |  Using band disentanglement                :                 T             |
 |  Total number of iterations                :              4000             |
 |  Mixing ratio                              :             0.500             |
 |  Convergence tolerence                     :         2.000E-07             |
 |  Convergence window                        :                 3             |
 *----------------------------------------------------------------------------*
 *-------------------------------- PLOTTING ----------------------------------*
 |  Plotting Wannier functions                :                 T             |
 |   Size of supercell for plotting           :     3x    3x    3             |
 |   Plotting mode (molecule or crystal)      :           crystal             |
 |   Plotting format                          :              cube             |
 |   Plot radius                              :             3.500             |
 |   Plot scale                               :             1.000             |
 *----------------------------------------------------------------------------*
 |  Plotting interpolated bandstructure       :                 T             |
 |   Number of K-path sections                :                 6             |
 |   Divisions along first K-path section     :               100             |
 |   Output format                            :           gnuplot             |
 |   Output mode                              :               s-k             |
 *----------------------------------------------------------------------------*
 |   K-space path sections:                                                   |
 |    From: GAMMA   0.000  0.000  0.000     To: X       0.500  0.000  0.500   |
 |    From: X       0.500  0.000  0.500     To: U       0.625  0.250  0.625   |
 |    From: K       0.375  0.375  0.750     To: GAMMA   0.000  0.000  0.000   |
 |    From: GAMMA   0.000  0.000  0.000     To: L       0.500  0.500  0.500   |
 |    From: L       0.500  0.500  0.500     To: W       0.500  0.250  0.750   |
 |    From: W       0.500  0.250  0.750     To: X       0.500  0.000  0.500   |
 *----------------------------------------------------------------------------*
 Time to read parameters        0.089 (sec)

 *---------------------------------- K-MESH ----------------------------------*
 +----------------------------------------------------------------------------+
 |                    Distance to Nearest-Neighbour Shells                    |
 |                    ------------------------------------                    |
 |          Shell             Distance (Ang^-1)          Multiplicity         |
 |          -----             -----------------          ------------         |
 |             1                   0.193237                      8            |
 |             2                   0.223131                      6            |
 |             3                   0.315555                     12            |
 |             4                   0.370021                     24            |
 |             5                   0.386474                      8            |
 |             6                   0.446262                      6            |
 |             7                   0.486302                     24            |
 |             8                   0.498936                     24            |
 |             9                   0.546557                     24            |
 |            10                   0.579711                     32            |
 |            11                   0.631109                     12            |
 |            12                   0.660030                     48            |
 |            13                   0.669392                     30            |
 |            14                   0.705602                     24            |
 |            15                   0.731583                     24            |
 |            16                   0.740041                     24            |
 |            17                   0.772948                      8            |
 |            18                   0.796736                     48            |
 |            19                   0.804510                     24            |
 |            20                   0.834879                     48            |
 |            21                   0.856950                     72            |
 |            22                   0.892523                      6            |
 |            23                   0.913202                     24            |
 |            24                   0.919992                     48            |
 |            25                   0.946664                     36            |
 |            26                   0.966185                     56            |
 |            27                   0.972605                     24            |
 |            28                   0.997871                     24            |
 |            29                   1.016409                     72            |
 |            30                   1.022514                     48            |
 |            31                   1.046576                     24            |
 |            32                   1.064266                     48            |
 |            33                   1.093113                     24            |
 |            34                   1.110062                     72            |
 |            35                   1.115654                     30            |
 |            36                   1.137748                     72            |
 +----------------------------------------------------------------------------+
 | The b-vectors are chosen automatically                                     |
 | The following shells are used:   1                                         |
 +----------------------------------------------------------------------------+
 |                        Shell   # Nearest-Neighbours                        |
 |                        -----   --------------------                        |
 |                          1               8                                 |
 +----------------------------------------------------------------------------+
 | Completeness relation is fully satisfied [Eq. (B1), PRB 56, 12847 (1997)]  |
 +----------------------------------------------------------------------------+
 |                  b_k Vectors (Ang^-1) and Weights (Ang^2)                  |
 |                  ----------------------------------------                  |
 |            No.         b_k(x)      b_k(y)      b_k(z)        w_b           |
 |            ---        --------------------------------     --------        |
 |             1         0.111565    0.111565   -0.111565    10.042708        |
 |             2         0.111565   -0.111565    0.111565    10.042708        |
 |             3        -0.111565    0.111565    0.111565    10.042708        |
 |             4         0.111565    0.111565    0.111565    10.042708        |
 |             5        -0.111565   -0.111565    0.111565    10.042708        |
 |             6        -0.111565    0.111565   -0.111565    10.042708        |
 |             7         0.111565   -0.111565   -0.111565    10.042708        |
 |             8        -0.111565   -0.111565   -0.111565    10.042708        |
 +----------------------------------------------------------------------------+
 |                           b_k Directions (Ang^-1)                          |
 |                           -----------------------                          |
 |            No.           x           y           z                         |
 |            ---        --------------------------------                     |
 |             1         0.111565    0.111565   -0.111565                     |
 |             2         0.111565   -0.111565    0.111565                     |
 |             3        -0.111565    0.111565    0.111565                     |
 |             4         0.111565    0.111565    0.111565                     |
 +----------------------------------------------------------------------------+
  
 Time to get kmesh              0.559 (sec)
 *============================================================================*
 |                              MEMORY ESTIMATE                               |
 |         Maximum RAM allocated during each phase of the calculation         |
 *============================================================================*
 |                        Disentanglement           97.75 Mb                  |
 |                            Wannierise:           37.82 Mb                  |
 |                          plot_wannier:           37.82 Mb                  |
 *----------------------------------------------------------------------------*
  
 Starting a new Wannier90 calculation ...


 Reading overlaps from aiida.mmn    : Created on  5Nov2021 at 19:22:30

 Reading projections from aiida.amn : Created on  5Nov2021 at 19:22:29

 Time to read overlaps          1.495 (sec)

 *------------------------------- DISENTANGLE --------------------------------*
 +----------------------------------------------------------------------------+
 |                              Energy  Windows                               |
 |                              ---------------                               |
 |                   Outer:   -5.04844  to   33.85772  (eV)                   |
 |                   Inner:   -5.04844  to   10.66953  (eV)                   |
 |   Disentanglement range:    0.01000  to    1.00000  projectability         |
 |            Frozen range:    0.95000  to    1.00000  projectability         |
 +----------------------------------------------------------------------------+
   Number of target bands to extract:   10

                   Unitarised projection of Wannier functions                  
                   ------------------------------------------                  
   A_mn = <psi_m|g_n> --> S = A.A^+ --> U = S^-1/2.A
   In dis_project... done
   Using an inner window (linner = T)
   In dis_proj_froz... done

                   Extraction of optimally-connected subspace                  
                   ------------------------------------------                  
 +---------------------------------------------------------------------+<-- DIS
 |  Iter     Omega_I(i-1)      Omega_I(i)      Delta (frac.)    Time   |<-- DIS
 +---------------------------------------------------------------------+<-- DIS
       1      19.76028626      18.70905438       5.619E-02      0.00    <-- DIS
       2      18.72216542      18.41033225       1.694E-02      0.02    <-- DIS
       3      18.49432078      18.21504362       1.533E-02      0.04    <-- DIS
       4      18.29548488      18.07099160       1.242E-02      0.05    <-- DIS
       5      18.13723743      17.96082806       9.822E-03      0.07    <-- DIS
       6      18.01334995      17.87452281       7.767E-03      0.09    <-- DIS
       7      17.91595618      17.80561049       6.197E-03      0.10    <-- DIS
       8      17.83855425      17.74971511       5.005E-03      0.12    <-- DIS
       9      17.77625136      17.70377256       4.094E-03      0.14    <-- DIS
      10      17.72546085      17.66557903       3.390E-03      0.16    <-- DIS
      11      17.68356115      17.63351395       2.838E-03      0.17    <-- DIS
      12      17.64862277      17.60636299       2.400E-03      0.19    <-- DIS
      13      17.61920956      17.58320126       2.048E-03      0.21    <-- DIS
      14      17.59423864      17.56331391       1.761E-03      0.22    <-- DIS
      15      17.57288245      17.54614110       1.524E-03      0.24    <-- DIS
      16      17.55450009      17.53123904       1.327E-03      0.26    <-- DIS
      17      17.53858889      17.51825185       1.161E-03      0.28    <-- DIS
      18      17.52474978      17.50689120       1.020E-03      0.29    <-- DIS
      19      17.51266228      17.49692114       8.997E-04      0.31    <-- DIS
      20      17.50206624      17.48814679       7.959E-04      0.33    <-- DIS
      21      17.49274839      17.48040586       7.061E-04      0.34    <-- DIS
      22      17.48453223      17.47356210       6.278E-04      0.36    <-- DIS
      23      17.47727043      17.46750035       5.593E-04      0.38    <-- DIS
      24      17.47083904      17.46212257       4.992E-04      0.40    <-- DIS
      25      17.46513304      17.45734486       4.461E-04      0.41    <-- DIS
      26      17.46006282      17.45309503       3.992E-04      0.43    <-- DIS
      27      17.45555154      17.44931063       3.577E-04      0.45    <-- DIS
      28      17.45153288      17.44593747       3.207E-04      0.46    <-- DIS
      29      17.44794939      17.44292830       2.879E-04      0.48    <-- DIS
      30      17.44475107      17.44024181       2.586E-04      0.50    <-- DIS
      31      17.44189426      17.43784178       2.324E-04      0.51    <-- DIS
      32      17.43934068      17.43569636       2.090E-04      0.53    <-- DIS
      33      17.43705672      17.43377747       1.881E-04      0.55    <-- DIS
      34      17.43501275      17.43206033       1.694E-04      0.57    <-- DIS
      35      17.43318261      17.43052304       1.526E-04      0.58    <-- DIS
      36      17.43154317      17.42914616       1.375E-04      0.60    <-- DIS
      37      17.43007394      17.42791248       1.240E-04      0.62    <-- DIS
      38      17.42875672      17.42680669       1.119E-04      0.63    <-- DIS
      39      17.42757535      17.42581521       1.010E-04      0.65    <-- DIS
      40      17.42651546      17.42492592       9.122E-05      0.67    <-- DIS
      41      17.42556425      17.42412805       8.243E-05      0.69    <-- DIS
      42      17.42471031      17.42341200       7.452E-05      0.70    <-- DIS
      43      17.42394348      17.42276918       6.740E-05      0.72    <-- DIS
      44      17.42325467      17.42219197       6.100E-05      0.74    <-- DIS
      45      17.42263578      17.42167352       5.523E-05      0.75    <-- DIS
      46      17.42207956      17.42120775       5.004E-05      0.77    <-- DIS
      47      17.42157953      17.42078919       4.537E-05      0.79    <-- DIS
      48      17.42112992      17.42041297       4.116E-05      0.80    <-- DIS
      49      17.42072552      17.42007473       3.736E-05      0.82    <-- DIS
      50      17.42036171      17.41977057       3.394E-05      0.84    <-- DIS
      51      17.42003434      17.41949699       3.085E-05      0.86    <-- DIS
      52      17.41973967      17.41925087       2.806E-05      0.87    <-- DIS
      53      17.41947439      17.41902940       2.555E-05      0.89    <-- DIS
      54      17.41923549      17.41883007       2.328E-05      0.91    <-- DIS
      55      17.41902031      17.41865063       2.122E-05      0.92    <-- DIS
      56      17.41882644      17.41848906       1.937E-05      0.94    <-- DIS
      57      17.41865173      17.41834355       1.769E-05      0.96    <-- DIS
      58      17.41849425      17.41821249       1.618E-05      0.97    <-- DIS
      59      17.41835226      17.41809441       1.480E-05      0.99    <-- DIS
      60      17.41822420      17.41798800       1.356E-05      1.01    <-- DIS
      61      17.41810868      17.41789210       1.243E-05      1.03    <-- DIS
      62      17.41800444      17.41780565       1.141E-05      1.04    <-- DIS
      63      17.41791036      17.41772770       1.049E-05      1.06    <-- DIS
      64      17.41782542      17.41765740       9.646E-06      1.08    <-- DIS
      65      17.41774871      17.41759400       8.883E-06      1.09    <-- DIS
      66      17.41767943      17.41753680       8.189E-06      1.11    <-- DIS
      67      17.41761682      17.41748519       7.557E-06      1.13    <-- DIS
      68      17.41756023      17.41743861       6.983E-06      1.14    <-- DIS
      69      17.41750907      17.41739657       6.459E-06      1.16    <-- DIS
      70      17.41746280      17.41735861       5.982E-06      1.18    <-- DIS
      71      17.41742094      17.41732434       5.546E-06      1.20    <-- DIS
      72      17.41738306      17.41729339       5.148E-06      1.21    <-- DIS
      73      17.41734876      17.41726543       4.784E-06      1.23    <-- DIS
      74      17.41731771      17.41724017       4.452E-06      1.25    <-- DIS
      75      17.41728958      17.41721735       4.147E-06      1.26    <-- DIS
      76      17.41726408      17.41719673       3.867E-06      1.28    <-- DIS
      77      17.41724097      17.41717808       3.611E-06      1.30    <-- DIS
      78      17.41722001      17.41716123       3.375E-06      1.32    <-- DIS
      79      17.41720100      17.41714599       3.158E-06      1.33    <-- DIS
      80      17.41718374      17.41713221       2.959E-06      1.35    <-- DIS
      81      17.41716807      17.41711974       2.775E-06      1.37    <-- DIS
      82      17.41715384      17.41710847       2.605E-06      1.38    <-- DIS
      83      17.41714090      17.41709827       2.448E-06      1.40    <-- DIS
      84      17.41712914      17.41708903       2.303E-06      1.42    <-- DIS
      85      17.41711845      17.41708068       2.169E-06      1.43    <-- DIS
      86      17.41710871      17.41707311       2.044E-06      1.45    <-- DIS
      87      17.41709985      17.41706627       1.928E-06      1.47    <-- DIS
      88      17.41709178      17.41706007       1.821E-06      1.49    <-- DIS
      89      17.41708442      17.41705445       1.721E-06      1.50    <-- DIS
      90      17.41707771      17.41704936       1.628E-06      1.52    <-- DIS
      91      17.41707159      17.41704476       1.541E-06      1.54    <-- DIS
      92      17.41706600      17.41704058       1.460E-06      1.55    <-- DIS
      93      17.41706090      17.41703680       1.384E-06      1.57    <-- DIS
      94      17.41705624      17.41703337       1.313E-06      1.59    <-- DIS
      95      17.41705197      17.41703026       1.246E-06      1.60    <-- DIS
      96      17.41704807      17.41702745       1.184E-06      1.62    <-- DIS
      97      17.41704449      17.41702489       1.125E-06      1.64    <-- DIS
      98      17.41704122      17.41702258       1.070E-06      1.66    <-- DIS
      99      17.41703822      17.41702048       1.018E-06      1.67    <-- DIS
     100      17.41703546      17.41701857       9.696E-07      1.69    <-- DIS
     101      17.41703293      17.41701684       9.236E-07      1.71    <-- DIS
     102      17.41703061      17.41701528       8.802E-07      1.72    <-- DIS
     103      17.41702847      17.41701385       8.392E-07      1.74    <-- DIS
     104      17.41702650      17.41701256       8.005E-07      1.76    <-- DIS
     105      17.41702469      17.41701139       7.638E-07      1.78    <-- DIS
     106      17.41702303      17.41701033       7.291E-07      1.79    <-- DIS
     107      17.41702149      17.41700936       6.961E-07      1.81    <-- DIS
     108      17.41702007      17.41700848       6.649E-07      1.83    <-- DIS
     109      17.41701875      17.41700769       6.353E-07      1.84    <-- DIS
     110      17.41701754      17.41700696       6.072E-07      1.86    <-- DIS
     111      17.41701642      17.41700631       5.805E-07      1.88    <-- DIS
     112      17.41701538      17.41700571       5.550E-07      1.90    <-- DIS
     113      17.41701442      17.41700517       5.309E-07      1.91    <-- DIS
     114      17.41701352      17.41700468       5.078E-07      1.93    <-- DIS
     115      17.41701269      17.41700423       4.859E-07      1.95    <-- DIS
     116      17.41701192      17.41700382       4.650E-07      1.96    <-- DIS
     117      17.41701120      17.41700345       4.451E-07      1.98    <-- DIS
     118      17.41701054      17.41700312       4.261E-07      2.00    <-- DIS
     119      17.41700992      17.41700281       4.080E-07      2.02    <-- DIS
     120      17.41700934      17.41700253       3.907E-07      2.03    <-- DIS
     121      17.41700880      17.41700228       3.742E-07      2.05    <-- DIS
     122      17.41700829      17.41700205       3.584E-07      2.07    <-- DIS
     123      17.41700782      17.41700184       3.433E-07      2.08    <-- DIS
     124      17.41700738      17.41700165       3.289E-07      2.10    <-- DIS
     125      17.41700697      17.41700148       3.151E-07      2.12    <-- DIS
     126      17.41700658      17.41700132       3.019E-07      2.13    <-- DIS
     127      17.41700622      17.41700118       2.893E-07      2.15    <-- DIS
     128      17.41700587      17.41700105       2.772E-07      2.17    <-- DIS
     129      17.41700556      17.41700093       2.657E-07      2.19    <-- DIS
     130      17.41700525      17.41700082       2.547E-07      2.20    <-- DIS
     131      17.41700497      17.41700072       2.441E-07      2.22    <-- DIS
     132      17.41700471      17.41700063       2.339E-07      2.24    <-- DIS
     133      17.41700446      17.41700055       2.242E-07      2.25    <-- DIS
     134      17.41700422      17.41700048       2.150E-07      2.27    <-- DIS
     135      17.41700400      17.41700041       2.061E-07      2.29    <-- DIS
     136      17.41700379      17.41700035       1.975E-07      2.30    <-- DIS
     137      17.41700359      17.41700029       1.894E-07      2.32    <-- DIS
     138      17.41700340      17.41700024       1.815E-07      2.34    <-- DIS

             <<<      Delta < 2.000E-07  over  3 iterations     >>>
             <<< Disentanglement convergence criteria satisfied >>>

        Final Omega_I    17.41700024 (Ang^2)

 +----------------------------------------------------------------------------+

 Time to disentangle bands      2.571 (sec)

 Writing checkpoint file aiida.chk... done

 
 *------------------------------- WANNIERISE ---------------------------------*
 +--------------------------------------------------------------------+<-- CONV
 | Iter  Delta Spread     RMS Gradient      Spread (Ang^2)      Time  |<-- CONV
 +--------------------------------------------------------------------+<-- CONV
 
 ------------------------------------------------------------------------------
 Initial State
  WF centre and spread    1  ( -0.000000, -0.000000,  0.000000 )     4.53360683
  WF centre and spread    2  ( -0.000000, -0.000000, -0.000000 )     1.37883406
  WF centre and spread    3  (  0.000000,  0.000000,  0.000000 )     2.50963814
  WF centre and spread    4  ( -0.000000,  0.000000,  0.000000 )     2.50963814
  WF centre and spread    5  ( -0.000000, -0.000000, -0.000000 )     1.37883406
  WF centre and spread    6  ( -0.000000, -0.000000, -0.000000 )     2.50963814
  WF centre and spread    7  (  2.815920, -0.000000,  0.000000 )     1.83882048
  WF centre and spread    8  (  2.815920,  0.000000,  0.000000 )     1.78194695
  WF centre and spread    9  (  2.815920,  0.000000, -0.000000 )     1.78194695
  WF centre and spread   10  (  2.815920, -0.000000, -0.000000 )     1.78194695
  Sum of centres and spreads ( 11.263679, -0.000000,  0.000000 )    22.00485069
 
      0     0.220E+02     0.0000000000       22.0048506947       2.43  <-- CONV
        O_D=      0.0000000 O_OD=      4.5878505 O_TOT=     22.0048507 <-- SPRD
 ------------------------------------------------------------------------------
 Cycle:      1
  WF centre and spread    1  ( -0.000000, -0.000000,  0.000000 )     4.28364709
  WF centre and spread    2  ( -0.000000, -0.000000, -0.000000 )     1.31301204
  WF centre and spread    3  ( -0.000000,  0.000000,  0.000000 )     2.53799563
  WF centre and spread    4  ( -0.000000,  0.000000,  0.000000 )     2.53799563
  WF centre and spread    5  ( -0.000000, -0.000000, -0.000000 )     1.31301122
  WF centre and spread    6  ( -0.000000, -0.000000, -0.000000 )     2.53799213
  WF centre and spread    7  (  2.815920,  0.000000,  0.000000 )     1.51139724
  WF centre and spread    8  (  2.815920,  0.000000,  0.000000 )     1.74903153
  WF centre and spread    9  (  2.815920,  0.000000, -0.000000 )     1.74903455
  WF centre and spread   10  (  2.815920, -0.000000, -0.000000 )     1.74903455
  Sum of centres and spreads ( 11.263679, -0.000000,  0.000000 )    21.28215160
 
      1    -0.723E+00     0.3135792858       21.2821515952       2.45  <-- CONV
        O_D=      0.0000000 O_OD=      3.8651514 O_TOT=     21.2821516 <-- SPRD
 Delta: O_D=  0.3515854E-15 O_OD= -0.7226991E+00 O_TOT= -0.7226991E+00 <-- DLTA
 ------------------------------------------------------------------------------
 Cycle:      2
  WF centre and spread    1  ( -0.000000, -0.000000,  0.000000 )     4.10785258
  WF centre and spread    2  ( -0.000000, -0.000000, -0.000000 )     1.28767506
  WF centre and spread    3  ( -0.000000,  0.000000,  0.000000 )     2.53597198
  WF centre and spread    4  ( -0.000000, -0.000000,  0.000000 )     2.53597198
  WF centre and spread    5  ( -0.000000, -0.000000, -0.000000 )     1.28767459
  WF centre and spread    6  ( -0.000000, -0.000000, -0.000000 )     2.53596875
  WF centre and spread    7  (  2.815920,  0.000000,  0.000000 )     1.32376392
  WF centre and spread    8  (  2.815920,  0.000000,  0.000000 )     1.73273614
  WF centre and spread    9  (  2.815920,  0.000000, -0.000000 )     1.73274091
  WF centre and spread   10  (  2.815920, -0.000000, -0.000000 )     1.73274091
  Sum of centres and spreads ( 11.263679, -0.000000,  0.000000 )    20.81309680
 
      2    -0.469E+00     0.4461521264       20.8130968018       2.47  <-- CONV
        O_D=      0.0000000 O_OD=      3.3960966 O_TOT=     20.8130968 <-- SPRD
 Delta: O_D= -0.2480494E-15 O_OD= -0.4690548E+00 O_TOT= -0.4690548E+00 <-- DLTA
 ------------------------------------------------------------------------------
 Cycle:      3
  WF centre and spread    1  ( -0.000000, -0.000000,  0.000000 )     4.01457180
  WF centre and spread    2  ( -0.000000, -0.000000, -0.000000 )     1.26925531
  WF centre and spread    3  ( -0.000000,  0.000000,  0.000000 )     2.54778947
  WF centre and spread    4  ( -0.000000, -0.000000,  0.000000 )     2.54778947
  WF centre and spread    5  ( -0.000000, -0.000000, -0.000000 )     1.26925532
  WF centre and spread    6  ( -0.000000, -0.000000, -0.000000 )     2.54778734
  WF centre and spread    7  (  2.815920,  0.000000,  0.000000 )     1.20806961
  WF centre and spread    8  (  2.815920,  0.000000,  0.000000 )     1.71608479
  WF centre and spread    9  (  2.815920,  0.000000, -0.000000 )     1.71609044
  WF centre and spread   10  (  2.815920, -0.000000, -0.000000 )     1.71609044
  Sum of centres and spreads ( 11.263679, -0.000000,  0.000000 )    20.55278398
 
      3    -0.260E+00     0.3115838186       20.5527839820       2.49  <-- CONV
        O_D=      0.0000000 O_OD=      3.1357837 O_TOT=     20.5527840 <-- SPRD
 Delta: O_D=  0.2212119E-16 O_OD= -0.2603128E+00 O_TOT= -0.2603128E+00 <-- DLTA
 ------------------------------------------------------------------------------
 Cycle:      4
  WF centre and spread    1  ( -0.000000, -0.000000,  0.000000 )     3.95187330
  WF centre and spread    2  ( -0.000000, -0.000000, -0.000000 )     1.25677982
  WF centre and spread    3  ( -0.000000,  0.000000,  0.000000 )     2.55723311
  WF centre and spread    4  ( -0.000000, -0.000000,  0.000000 )     2.55723311
  WF centre and spread    5  ( -0.000000, -0.000000, -0.000000 )     1.25677982
  WF centre and spread    6  ( -0.000000, -0.000000, -0.000000 )     2.55723083
  WF centre and spread    7  (  2.815920,  0.000000, -0.000000 )     1.11747699
  WF centre and spread    8  (  2.815920,  0.000000,  0.000000 )     1.69752507
  WF centre and spread    9  (  2.815920,  0.000000, -0.000000 )     1.69753088
  WF centre and spread   10  (  2.815920, -0.000000, -0.000000 )     1.69753088
  Sum of centres and spreads ( 11.263679, -0.000000,  0.000000 )    20.34719381
 
      4    -0.206E+00     0.2684109599       20.3471938102       2.51  <-- CONV
        O_D=      0.0000000 O_OD=      2.9301936 O_TOT=     20.3471938 <-- SPRD
 Delta: O_D= -0.3742587E-16 O_OD= -0.2055902E+00 O_TOT= -0.2055902E+00 <-- DLTA
 ------------------------------------------------------------------------------
 Cycle:      5
  WF centre and spread    1  ( -0.000000, -0.000000,  0.000000 )     3.92970533
  WF centre and spread    2  ( -0.000000, -0.000000, -0.000000 )     1.25195234
  WF centre and spread    3  ( -0.000000,  0.000000,  0.000000 )     2.55862766
  WF centre and spread    4  ( -0.000000, -0.000000,  0.000000 )     2.55862766
  WF centre and spread    5  ( -0.000000, -0.000000, -0.000000 )     1.25195225
  WF centre and spread    6  ( -0.000000, -0.000000, -0.000000 )     2.55862610
  WF centre and spread    7  (  2.815920, -0.000000, -0.000000 )     1.07324783
  WF centre and spread    8  (  2.815920,  0.000000,  0.000000 )     1.68306755
  WF centre and spread    9  (  2.815920,  0.000000, -0.000000 )     1.68307420
  WF centre and spread   10  (  2.815920, -0.000000, -0.000000 )     1.68307420
  Sum of centres and spreads ( 11.263679, -0.000000,  0.000000 )    20.23195512
 
      5    -0.115E+00     0.2187880244       20.2319551193       2.53  <-- CONV
        O_D=      0.0000000 O_OD=      2.8149549 O_TOT=     20.2319551 <-- SPRD
 Delta: O_D= -0.3409273E-16 O_OD= -0.1152387E+00 O_TOT= -0.1152387E+00 <-- DLTA
 ------------------------------------------------------------------------------
 Cycle:      6
  WF centre and spread    1  ( -0.000000, -0.000000,  0.000000 )     3.93246633
  WF centre and spread    2  ( -0.000000, -0.000000, -0.000000 )     1.24778687
  WF centre and spread    3  ( -0.000000,  0.000000,  0.000000 )     2.55736772
  WF centre and spread    4  ( -0.000000, -0.000000,  0.000000 )     2.55736772
  WF centre and spread    5  ( -0.000000, -0.000000, -0.000000 )     1.24778685
  WF centre and spread    6  ( -0.000000, -0.000000, -0.000000 )     2.55736708
  WF centre and spread    7  (  2.815920, -0.000000, -0.000000 )     1.05158422
  WF centre and spread    8  (  2.815920,  0.000000,  0.000000 )     1.67089768
  WF centre and spread    9  (  2.815920,  0.000000, -0.000000 )     1.67090383
  WF centre and spread   10  (  2.815920, -0.000000, -0.000000 )     1.67090383
  Sum of centres and spreads ( 11.263679, -0.000000,  0.000000 )    20.16443214
 
      6    -0.675E-01     0.1620328563       20.1644321360       2.55  <-- CONV
        O_D=      0.0000000 O_OD=      2.7474319 O_TOT=     20.1644321 <-- SPRD
 Delta: O_D= -0.1415630E-16 O_OD= -0.6752298E-01 O_TOT= -0.6752298E-01 <-- DLTA
 ------------------------------------------------------------------------------
 Cycle:      7
  WF centre and spread    1  ( -0.000000, -0.000000,  0.000000 )     3.94668785
  WF centre and spread    2  ( -0.000000, -0.000000, -0.000000 )     1.24599508
  WF centre and spread    3  ( -0.000000,  0.000000,  0.000000 )     2.55409537
  WF centre and spread    4  ( -0.000000, -0.000000,  0.000000 )     2.55409537
  WF centre and spread    5  ( -0.000000, -0.000000, -0.000000 )     1.24599518
  WF centre and spread    6  ( -0.000000, -0.000000, -0.000000 )     2.55409549
  WF centre and spread    7  (  2.815920, -0.000000, -0.000000 )     1.04318929
  WF centre and spread    8  (  2.815920,  0.000000,  0.000000 )     1.66156460
  WF centre and spread    9  (  2.815920,  0.000000, -0.000000 )     1.66157039
  WF centre and spread   10  (  2.815920, -0.000000, -0.000000 )     1.66157039
  Sum of centres and spreads ( 11.263679, -0.000000,  0.000000 )    20.12885902
 
      7    -0.356E-01     0.1218097057       20.1288590246       2.56  <-- CONV
        O_D=      0.0000000 O_OD=      2.7118588 O_TOT=     20.1288590 <-- SPRD
 Delta: O_D= -0.1436592E-16 O_OD= -0.3557311E-01 O_TOT= -0.3557311E-01 <-- DLTA
 ------------------------------------------------------------------------------
 Cycle:      8
  WF centre and spread    1  ( -0.000000, -0.000000,  0.000000 )     3.96565536
  WF centre and spread    2  ( -0.000000, -0.000000, -0.000000 )     1.24598245
  WF centre and spread    3  ( -0.000000,  0.000000,  0.000000 )     2.55041171
  WF centre and spread    4  ( -0.000000, -0.000000,  0.000000 )     2.55041171
  WF centre and spread    5  ( -0.000000, -0.000000, -0.000000 )     1.24598262
  WF centre and spread    6  ( -0.000000, -0.000000, -0.000000 )     2.55041199
  WF centre and spread    7  (  2.815920, -0.000000, -0.000000 )     1.03966412
  WF centre and spread    8  (  2.815920,  0.000000,  0.000000 )     1.65359676
  WF centre and spread    9  (  2.815920,  0.000000, -0.000000 )     1.65360228
  WF centre and spread   10  (  2.815920, -0.000000, -0.000000 )     1.65360228
  Sum of centres and spreads ( 11.263679, -0.000000,  0.000000 )    20.10932127
 
      8    -0.195E-01     0.0890103753       20.1093212745       2.58  <-- CONV
        O_D=      0.0000000 O_OD=      2.6923210 O_TOT=     20.1093213 <-- SPRD
 Delta: O_D= -0.7035420E-17 O_OD= -0.1953775E-01 O_TOT= -0.1953775E-01 <-- DLTA
 ------------------------------------------------------------------------------
 Cycle:      9
  WF centre and spread    1  ( -0.000000, -0.000000,  0.000000 )     3.98787599
  WF centre and spread    2  ( -0.000000, -0.000000, -0.000000 )     1.24706596
  WF centre and spread    3  ( -0.000000,  0.000000,  0.000000 )     2.54676537
  WF centre and spread    4  ( -0.000000, -0.000000,  0.000000 )     2.54676537
  WF centre and spread    5  ( -0.000000, -0.000000, -0.000000 )     1.24706613
  WF centre and spread    6  ( -0.000000, -0.000000, -0.000000 )     2.54676591
  WF centre and spread    7  (  2.815920, -0.000000, -0.000000 )     1.03742492
  WF centre and spread    8  (  2.815920,  0.000000,  0.000000 )     1.64545011
  WF centre and spread    9  (  2.815920,  0.000000, -0.000000 )     1.64545533
  WF centre and spread   10  (  2.815920, -0.000000, -0.000000 )     1.64545533
  Sum of centres and spreads ( 11.263679, -0.000000,  0.000000 )    20.09609044
 
      9    -0.132E-01     0.0692617661       20.0960904382       2.60  <-- CONV
        O_D=      0.0000000 O_OD=      2.6790902 O_TOT=     20.0960904 <-- SPRD
 Delta: O_D=  0.7590041E-17 O_OD= -0.1323084E-01 O_TOT= -0.1323084E-01 <-- DLTA
 ------------------------------------------------------------------------------
 Cycle:     10
  WF centre and spread    1  ( -0.000000, -0.000000,  0.000000 )     4.01118574
  WF centre and spread    2  ( -0.000000, -0.000000, -0.000000 )     1.24867199
  WF centre and spread    3  ( -0.000000,  0.000000,  0.000000 )     2.54340699
  WF centre and spread    4  ( -0.000000, -0.000000,  0.000000 )     2.54340699
  WF centre and spread    5  ( -0.000000, -0.000000, -0.000000 )     1.24867211
  WF centre and spread    6  ( -0.000000, -0.000000, -0.000000 )     2.54340790
  WF centre and spread    7  (  2.815920, -0.000000, -0.000000 )     1.03563300
  WF centre and spread    8  (  2.815920,  0.000000,  0.000000 )     1.63727535
  WF centre and spread    9  (  2.815920,  0.000000, -0.000000 )     1.63728003
  WF centre and spread   10  (  2.815920, -0.000000, -0.000000 )     1.63728003
  Sum of centres and spreads ( 11.263679, -0.000000,  0.000000 )    20.08622013
 
     10    -0.987E-02     0.0596231003       20.0862201291       2.62  <-- CONV
        O_D=      0.0000000 O_OD=      2.6692199 O_TOT=     20.0862201 <-- SPRD
 Delta: O_D=  0.1084138E-16 O_OD= -0.9870309E-02 O_TOT= -0.9870309E-02 <-- DLTA
 ------------------------------------------------------------------------------
 Cycle:     11
  WF centre and spread    1  ( -0.000000, -0.000000,  0.000000 )     4.02557720
  WF centre and spread    2  ( -0.000000, -0.000000, -0.000000 )     1.25011530
  WF centre and spread    3  ( -0.000000,  0.000000,  0.000000 )     2.54134596
  WF centre and spread    4  ( -0.000000, -0.000000,  0.000000 )     2.54134596
  WF centre and spread    5  ( -0.000000, -0.000000, -0.000000 )     1.25011535
  WF centre and spread    6  ( -0.000000, -0.000000, -0.000000 )     2.54134705
  WF centre and spread    7  (  2.815920, -0.000000, -0.000000 )     1.03481456
  WF centre and spread    8  (  2.815920,  0.000000,  0.000000 )     1.63219105
  WF centre and spread    9  (  2.815920,  0.000000, -0.000000 )     1.63219502
  WF centre and spread   10  (  2.815920, -0.000000, -0.000000 )     1.63219502
  Sum of centres and spreads ( 11.263679, -0.000000,  0.000000 )    20.08124244
 
     11    -0.498E-02     0.0489788106       20.0812424400       2.64  <-- CONV
        O_D=      0.0000000 O_OD=      2.6642422 O_TOT=     20.0812424 <-- SPRD
 Delta: O_D= -0.2695953E-16 O_OD= -0.4977689E-02 O_TOT= -0.4977689E-02 <-- DLTA
 ------------------------------------------------------------------------------
 Cycle:     12
  WF centre and spread    1  ( -0.000000, -0.000000,  0.000000 )     4.03252175
  WF centre and spread    2  ( -0.000000, -0.000000, -0.000000 )     1.25115150
  WF centre and spread    3  ( -0.000000,  0.000000,  0.000000 )     2.54051406
  WF centre and spread    4  ( -0.000000, -0.000000,  0.000000 )     2.54051406
  WF centre and spread    5  ( -0.000000, -0.000000, -0.000000 )     1.25115150
  WF centre and spread    6  ( -0.000000, -0.000000, -0.000000 )     2.54051514
  WF centre and spread    7  (  2.815920, -0.000000, -0.000000 )     1.03455600
  WF centre and spread    8  (  2.815920,  0.000000,  0.000000 )     1.62948093
  WF centre and spread    9  (  2.815920,  0.000000, -0.000000 )     1.62948459
  WF centre and spread   10  (  2.815920, -0.000000, -0.000000 )     1.62948459
  Sum of centres and spreads ( 11.263679, -0.000000,  0.000000 )    20.07937412
 
     12    -0.187E-02     0.0283035940       20.0793741237       2.65  <-- CONV
        O_D=      0.0000000 O_OD=      2.6623739 O_TOT=     20.0793741 <-- SPRD
 Delta: O_D=  0.6030071E-17 O_OD= -0.1868316E-02 O_TOT= -0.1868316E-02 <-- DLTA
 ------------------------------------------------------------------------------
 Cycle:     13
  WF centre and spread    1  ( -0.000000, -0.000000,  0.000000 )     4.03636334
  WF centre and spread    2  ( -0.000000, -0.000000, -0.000000 )     1.25197539
  WF centre and spread    3  ( -0.000000,  0.000000,  0.000000 )     2.54016192
  WF centre and spread    4  ( -0.000000, -0.000000,  0.000000 )     2.54016192
  WF centre and spread    5  ( -0.000000, -0.000000, -0.000000 )     1.25197536
  WF centre and spread    6  ( -0.000000, -0.000000, -0.000000 )     2.54016298
  WF centre and spread    7  (  2.815920, -0.000000, -0.000000 )     1.03447640
  WF centre and spread    8  (  2.815920,  0.000000,  0.000000 )     1.62776037
  WF centre and spread    9  (  2.815920,  0.000000, -0.000000 )     1.62776379
  WF centre and spread   10  (  2.815920, -0.000000, -0.000000 )     1.62776379
  Sum of centres and spreads ( 11.263679, -0.000000,  0.000000 )    20.07856526
 
     13    -0.809E-03     0.0197478517       20.0785652583       2.67  <-- CONV
        O_D=      0.0000000 O_OD=      2.6615650 O_TOT=     20.0785653 <-- SPRD
 Delta: O_D= -0.1003928E-16 O_OD= -0.8088654E-03 O_TOT= -0.8088654E-03 <-- DLTA
 ------------------------------------------------------------------------------
 Cycle:     14
  WF centre and spread    1  ( -0.000000, -0.000000,  0.000000 )     4.04019804
  WF centre and spread    2  ( -0.000000, -0.000000, -0.000000 )     1.25298248
  WF centre and spread    3  ( -0.000000,  0.000000,  0.000000 )     2.53992040
  WF centre and spread    4  ( -0.000000, -0.000000,  0.000000 )     2.53992040
  WF centre and spread    5  ( -0.000000, -0.000000, -0.000000 )     1.25298243
  WF centre and spread    6  ( -0.000000, -0.000000, -0.000000 )     2.53992142
  WF centre and spread    7  (  2.815920,  0.000000, -0.000000 )     1.03445317
  WF centre and spread    8  (  2.815920,  0.000000,  0.000000 )     1.62587467
  WF centre and spread    9  (  2.815920,  0.000000, -0.000000 )     1.62587786
  WF centre and spread   10  (  2.815920, -0.000000, -0.000000 )     1.62587786
  Sum of centres and spreads ( 11.263679, -0.000000,  0.000000 )    20.07800871
 
     14    -0.557E-03     0.0127295952       20.0780087143       2.69  <-- CONV
        O_D=      0.0000000 O_OD=      2.6610085 O_TOT=     20.0780087 <-- SPRD
 Delta: O_D=  0.6769875E-16 O_OD= -0.5565439E-03 O_TOT= -0.5565439E-03 <-- DLTA
 ------------------------------------------------------------------------------
 Cycle:     15
  WF centre and spread    1  ( -0.000000, -0.000000,  0.000000 )     4.04367453
  WF centre and spread    2  ( -0.000000, -0.000000, -0.000000 )     1.25390094
  WF centre and spread    3  ( -0.000000,  0.000000,  0.000000 )     2.53976347
  WF centre and spread    4  ( -0.000000, -0.000000,  0.000000 )     2.53976347
  WF centre and spread    5  ( -0.000000, -0.000000, -0.000000 )     1.25390088
  WF centre and spread    6  ( -0.000000, -0.000000, -0.000000 )     2.53976441
  WF centre and spread    7  (  2.815920,  0.000000, -0.000000 )     1.03448049
  WF centre and spread    8  (  2.815920,  0.000000,  0.000000 )     1.62411730
  WF centre and spread    9  (  2.815920,  0.000000, -0.000000 )     1.62412020
  WF centre and spread   10  (  2.815920, -0.000000, -0.000000 )     1.62412020
  Sum of centres and spreads ( 11.263679, -0.000000,  0.000000 )    20.07760589
 
     15    -0.403E-03     0.0125331704       20.0776058948       2.71  <-- CONV
        O_D=      0.0000000 O_OD=      2.6606057 O_TOT=     20.0776059 <-- SPRD
 Delta: O_D=  0.4032262E-16 O_OD= -0.4028196E-03 O_TOT= -0.4028196E-03 <-- DLTA
 ------------------------------------------------------------------------------
 Cycle:     16
  WF centre and spread    1  ( -0.000000, -0.000000,  0.000000 )     4.04634229
  WF centre and spread    2  ( -0.000000, -0.000000, -0.000000 )     1.25455423
  WF centre and spread    3  ( -0.000000,  0.000000,  0.000000 )     2.53972132
  WF centre and spread    4  ( -0.000000, -0.000000,  0.000000 )     2.53972132
  WF centre and spread    5  ( -0.000000, -0.000000, -0.000000 )     1.25455418
  WF centre and spread    6  ( -0.000000, -0.000000, -0.000000 )     2.53972215
  WF centre and spread    7  (  2.815920,  0.000000, -0.000000 )     1.03454119
  WF centre and spread    8  (  2.815920,  0.000000,  0.000000 )     1.62273021
  WF centre and spread    9  (  2.815920,  0.000000, -0.000000 )     1.62273287
  WF centre and spread   10  (  2.815920, -0.000000, -0.000000 )     1.62273287
  Sum of centres and spreads ( 11.263679, -0.000000,  0.000000 )    20.07735263
 
     16    -0.253E-03     0.0100074008       20.0773526308       2.73  <-- CONV
        O_D=      0.0000000 O_OD=      2.6603524 O_TOT=     20.0773526 <-- SPRD
 Delta: O_D=  0.2793499E-16 O_OD= -0.2532639E-03 O_TOT= -0.2532639E-03 <-- DLTA
 ------------------------------------------------------------------------------
 Cycle:     17
  WF centre and spread    1  ( -0.000000, -0.000000,  0.000000 )     4.04811473
  WF centre and spread    2  ( -0.000000, -0.000000, -0.000000 )     1.25495869
  WF centre and spread    3  ( -0.000000,  0.000000,  0.000000 )     2.53974996
  WF centre and spread    4  ( -0.000000, -0.000000,  0.000000 )     2.53974996
  WF centre and spread    5  ( -0.000000, -0.000000, -0.000000 )     1.25495864
  WF centre and spread    6  ( -0.000000, -0.000000, -0.000000 )     2.53975073
  WF centre and spread    7  (  2.815920,  0.000000, -0.000000 )     1.03461197
  WF centre and spread    8  (  2.815920,  0.000000,  0.000000 )     1.62177043
  WF centre and spread    9  (  2.815920,  0.000000, -0.000000 )     1.62177292
  WF centre and spread   10  (  2.815920, -0.000000, -0.000000 )     1.62177292
  Sum of centres and spreads ( 11.263679, -0.000000,  0.000000 )    20.07721094
 
     17    -0.142E-03     0.0076199284       20.0772109444       2.75  <-- CONV
        O_D=      0.0000000 O_OD=      2.6602107 O_TOT=     20.0772109 <-- SPRD
 Delta: O_D=  0.2373700E-16 O_OD= -0.1416864E-03 O_TOT= -0.1416864E-03 <-- DLTA
 ------------------------------------------------------------------------------
 Cycle:     18
  WF centre and spread    1  ( -0.000000, -0.000000,  0.000000 )     4.04921432
  WF centre and spread    2  ( -0.000000, -0.000000, -0.000000 )     1.25521109
  WF centre and spread    3  ( -0.000000,  0.000000,  0.000000 )     2.53981410
  WF centre and spread    4  ( -0.000000, -0.000000,  0.000000 )     2.53981410
  WF centre and spread    5  ( -0.000000, -0.000000, -0.000000 )     1.25521104
  WF centre and spread    6  ( -0.000000, -0.000000, -0.000000 )     2.53981486
  WF centre and spread    7  (  2.815920,  0.000000, -0.000000 )     1.03466955
  WF centre and spread    8  (  2.815920,  0.000000,  0.000000 )     1.62112616
  WF centre and spread    9  (  2.815920,  0.000000, -0.000000 )     1.62112853
  WF centre and spread   10  (  2.815920, -0.000000, -0.000000 )     1.62112853
  Sum of centres and spreads ( 11.263679, -0.000000,  0.000000 )    20.07713228
 
     18    -0.787E-04     0.0056771694       20.0771322838       2.76  <-- CONV
        O_D=      0.0000000 O_OD=      2.6601320 O_TOT=     20.0771323 <-- SPRD
 Delta: O_D=  0.2532617E-16 O_OD= -0.7866064E-04 O_TOT= -0.7866064E-04 <-- DLTA
 ------------------------------------------------------------------------------
 Cycle:     19
  WF centre and spread    1  ( -0.000000, -0.000000,  0.000000 )     4.04971654
  WF centre and spread    2  ( -0.000000, -0.000000, -0.000000 )     1.25532948
  WF centre and spread    3  ( -0.000000,  0.000000,  0.000000 )     2.53987060
  WF centre and spread    4  ( -0.000000, -0.000000,  0.000000 )     2.53987060
  WF centre and spread    5  ( -0.000000, -0.000000, -0.000000 )     1.25532944
  WF centre and spread    6  ( -0.000000, -0.000000, -0.000000 )     2.53987136
  WF centre and spread    7  (  2.815920,  0.000000, -0.000000 )     1.03469621
  WF centre and spread    8  (  2.815920,  0.000000,  0.000000 )     1.62080336
  WF centre and spread    9  (  2.815920,  0.000000, -0.000000 )     1.62080566
  WF centre and spread   10  (  2.815920, -0.000000, -0.000000 )     1.62080566
  Sum of centres and spreads ( 11.263679, -0.000000,  0.000000 )    20.07709891
 
     19    -0.334E-04     0.0039151657       20.0770989055       2.78  <-- CONV
        O_D=      0.0000000 O_OD=      2.6600987 O_TOT=     20.0770989 <-- SPRD
 Delta: O_D= -0.8676218E-17 O_OD= -0.3337826E-04 O_TOT= -0.3337826E-04 <-- DLTA
 ------------------------------------------------------------------------------
 Cycle:     20
  WF centre and spread    1  ( -0.000000, -0.000000,  0.000000 )     4.04996367
  WF centre and spread    2  ( -0.000000, -0.000000, -0.000000 )     1.25538341
  WF centre and spread    3  ( -0.000000,  0.000000,  0.000000 )     2.53991323
  WF centre and spread    4  ( -0.000000, -0.000000,  0.000000 )     2.53991323
  WF centre and spread    5  ( -0.000000, -0.000000, -0.000000 )     1.25538337
  WF centre and spread    6  ( -0.000000, -0.000000, -0.000000 )     2.53991399
  WF centre and spread    7  (  2.815920,  0.000000, -0.000000 )     1.03470318
  WF centre and spread    8  (  2.815920,  0.000000,  0.000000 )     1.62063504
  WF centre and spread    9  (  2.815920,  0.000000, -0.000000 )     1.62063729
  WF centre and spread   10  (  2.815920, -0.000000, -0.000000 )     1.62063729
  Sum of centres and spreads ( 11.263679, -0.000000,  0.000000 )    20.07708369
 
     20    -0.152E-04     0.0025968292       20.0770836932       2.80  <-- CONV
        O_D=      0.0000000 O_OD=      2.6600835 O_TOT=     20.0770837 <-- SPRD
 Delta: O_D= -0.7480593E-17 O_OD= -0.1521228E-04 O_TOT= -0.1521228E-04 <-- DLTA
 ------------------------------------------------------------------------------
 Cycle:     21
  WF centre and spread    1  ( -0.000000, -0.000000,  0.000000 )     4.05007783
  WF centre and spread    2  ( -0.000000, -0.000000, -0.000000 )     1.25540572
  WF centre and spread    3  ( -0.000000,  0.000000,  0.000000 )     2.53994169
  WF centre and spread    4  ( -0.000000, -0.000000,  0.000000 )     2.53994169
  WF centre and spread    5  ( -0.000000, -0.000000, -0.000000 )     1.25540568
  WF centre and spread    6  ( -0.000000, -0.000000, -0.000000 )     2.53994246
  WF centre and spread    7  (  2.815920,  0.000000, -0.000000 )     1.03470014
  WF centre and spread    8  (  2.815920,  0.000000,  0.000000 )     1.62055234
  WF centre and spread    9  (  2.815920,  0.000000, -0.000000 )     1.62055456
  WF centre and spread   10  (  2.815920, -0.000000, -0.000000 )     1.62055456
  Sum of centres and spreads ( 11.263679, -0.000000,  0.000000 )    20.07707666
 
     21    -0.704E-05     0.0018538452       20.0770766579       2.82  <-- CONV
        O_D=      0.0000000 O_OD=      2.6600764 O_TOT=     20.0770767 <-- SPRD
 Delta: O_D= -0.9842219E-16 O_OD= -0.7035334E-05 O_TOT= -0.7035334E-05 <-- DLTA
 ------------------------------------------------------------------------------
 Cycle:     22
  WF centre and spread    1  ( -0.000000, -0.000000,  0.000000 )     4.05011177
  WF centre and spread    2  ( -0.000000, -0.000000, -0.000000 )     1.25541206
  WF centre and spread    3  ( -0.000000,  0.000000,  0.000000 )     2.53995738
  WF centre and spread    4  ( -0.000000, -0.000000,  0.000000 )     2.53995738
  WF centre and spread    5  ( -0.000000, -0.000000, -0.000000 )     1.25541202
  WF centre and spread    6  ( -0.000000, -0.000000, -0.000000 )     2.53995816
  WF centre and spread    7  (  2.815920,  0.000000, -0.000000 )     1.03469162
  WF centre and spread    8  (  2.815920,  0.000000,  0.000000 )     1.62052302
  WF centre and spread    9  (  2.815920,  0.000000, -0.000000 )     1.62052520
  WF centre and spread   10  (  2.815920, -0.000000, -0.000000 )     1.62052520
  Sum of centres and spreads ( 11.263679, -0.000000,  0.000000 )    20.07707380
 
     22    -0.286E-05     0.0010803273       20.0770737975       2.84  <-- CONV
        O_D=      0.0000000 O_OD=      2.6600736 O_TOT=     20.0770738 <-- SPRD
 Delta: O_D=  0.3527794E-16 O_OD= -0.2860368E-05 O_TOT= -0.2860368E-05 <-- DLTA
 ------------------------------------------------------------------------------
 Cycle:     23
  WF centre and spread    1  ( -0.000000, -0.000000,  0.000000 )     4.05012028
  WF centre and spread    2  ( -0.000000, -0.000000, -0.000000 )     1.25541234
  WF centre and spread    3  ( -0.000000,  0.000000,  0.000000 )     2.53996414
  WF centre and spread    4  ( -0.000000, -0.000000,  0.000000 )     2.53996414
  WF centre and spread    5  ( -0.000000, -0.000000, -0.000000 )     1.25541230
  WF centre and spread    6  ( -0.000000, -0.000000, -0.000000 )     2.53996493
  WF centre and spread    7  (  2.815920,  0.000000, -0.000000 )     1.03468223
  WF centre and spread    8  (  2.815920,  0.000000,  0.000000 )     1.62051588
  WF centre and spread    9  (  2.815920,  0.000000, -0.000000 )     1.62051803
  WF centre and spread   10  (  2.815920, -0.000000, -0.000000 )     1.62051803
  Sum of centres and spreads ( 11.263679, -0.000000,  0.000000 )    20.07707231
 
     23    -0.149E-05     0.0008142229       20.0770723057       2.86  <-- CONV
        O_D=      0.0000000 O_OD=      2.6600721 O_TOT=     20.0770723 <-- SPRD
 Delta: O_D= -0.1880548E-16 O_OD= -0.1491832E-05 O_TOT= -0.1491832E-05 <-- DLTA
 ------------------------------------------------------------------------------
 Cycle:     24
  WF centre and spread    1  ( -0.000000, -0.000000,  0.000000 )     4.05012009
  WF centre and spread    2  ( -0.000000, -0.000000, -0.000000 )     1.25540852
  WF centre and spread    3  ( -0.000000,  0.000000,  0.000000 )     2.53996349
  WF centre and spread    4  ( -0.000000, -0.000000,  0.000000 )     2.53996349
  WF centre and spread    5  ( -0.000000, -0.000000, -0.000000 )     1.25540848
  WF centre and spread    6  ( -0.000000, -0.000000, -0.000000 )     2.53996428
  WF centre and spread    7  (  2.815920,  0.000000, -0.000000 )     1.03467510
  WF centre and spread    8  (  2.815920,  0.000000,  0.000000 )     1.62052129
  WF centre and spread    9  (  2.815920,  0.000000, -0.000000 )     1.62052343
  WF centre and spread   10  (  2.815920, -0.000000, -0.000000 )     1.62052343
  Sum of centres and spreads ( 11.263679, -0.000000,  0.000000 )    20.07707160
 
     24    -0.706E-06     0.0005542963       20.0770716000       2.87  <-- CONV
        O_D=      0.0000000 O_OD=      2.6600714 O_TOT=     20.0770716 <-- SPRD
 Delta: O_D=  0.3907876E-17 O_OD= -0.7056501E-06 O_TOT= -0.7056501E-06 <-- DLTA
 ------------------------------------------------------------------------------
 Cycle:     25
  WF centre and spread    1  ( -0.000000, -0.000000,  0.000000 )     4.05011824
  WF centre and spread    2  ( -0.000000, -0.000000, -0.000000 )     1.25540333
  WF centre and spread    3  ( -0.000000,  0.000000,  0.000000 )     2.53995826
  WF centre and spread    4  ( -0.000000, -0.000000,  0.000000 )     2.53995826
  WF centre and spread    5  ( -0.000000, -0.000000, -0.000000 )     1.25540330
  WF centre and spread    6  ( -0.000000, -0.000000, -0.000000 )     2.53995906
  WF centre and spread    7  (  2.815920,  0.000000, -0.000000 )     1.03467112
  WF centre and spread    8  (  2.815920,  0.000000,  0.000000 )     1.62053182
  WF centre and spread    9  (  2.815920,  0.000000, -0.000000 )     1.62053395
  WF centre and spread   10  (  2.815920, -0.000000, -0.000000 )     1.62053395
  Sum of centres and spreads ( 11.263679, -0.000000,  0.000000 )    20.07707130
 
     25    -0.300E-06     0.0003568625       20.0770713001       2.89  <-- CONV
        O_D=      0.0000000 O_OD=      2.6600711 O_TOT=     20.0770713 <-- SPRD
 Delta: O_D=  0.8875066E-16 O_OD= -0.2999494E-06 O_TOT= -0.2999494E-06 <-- DLTA
 ------------------------------------------------------------------------------
 Cycle:     26
  WF centre and spread    1  ( -0.000000, -0.000000,  0.000000 )     4.05011748
  WF centre and spread    2  ( -0.000000, -0.000000, -0.000000 )     1.25539633
  WF centre and spread    3  ( -0.000000,  0.000000,  0.000000 )     2.53994945
  WF centre and spread    4  ( -0.000000, -0.000000,  0.000000 )     2.53994945
  WF centre and spread    5  ( -0.000000, -0.000000, -0.000000 )     1.25539630
  WF centre and spread    6  ( -0.000000, -0.000000, -0.000000 )     2.53995025
  WF centre and spread    7  (  2.815920,  0.000000, -0.000000 )     1.03466844
  WF centre and spread    8  (  2.815920,  0.000000,  0.000000 )     1.62054640
  WF centre and spread    9  (  2.815920,  0.000000, -0.000000 )     1.62054851
  WF centre and spread   10  (  2.815920, -0.000000, -0.000000 )     1.62054851
  Sum of centres and spreads ( 11.263679, -0.000000,  0.000000 )    20.07707112
 
     26    -0.176E-06     0.0002620458       20.0770711245       2.91  <-- CONV
        O_D=      0.0000000 O_OD=      2.6600709 O_TOT=     20.0770711 <-- SPRD
 Delta: O_D=  0.2766104E-15 O_OD= -0.1756392E-06 O_TOT= -0.1756392E-06 <-- DLTA
 ------------------------------------------------------------------------------
 Cycle:     27
  WF centre and spread    1  ( -0.000000, -0.000000,  0.000000 )     4.05011879
  WF centre and spread    2  ( -0.000000, -0.000000, -0.000000 )     1.25538752
  WF centre and spread    3  ( -0.000000,  0.000000,  0.000000 )     2.53993815
  WF centre and spread    4  ( -0.000000, -0.000000,  0.000000 )     2.53993815
  WF centre and spread    5  ( -0.000000, -0.000000, -0.000000 )     1.25538749
  WF centre and spread    6  ( -0.000000, -0.000000, -0.000000 )     2.53993896
  WF centre and spread    7  (  2.815920,  0.000000, -0.000000 )     1.03466628
  WF centre and spread    8  (  2.815920,  0.000000,  0.000000 )     1.62056383
  WF centre and spread    9  (  2.815920,  0.000000, -0.000000 )     1.62056591
  WF centre and spread   10  (  2.815920, -0.000000, -0.000000 )     1.62056591
  Sum of centres and spreads ( 11.263679, -0.000000,  0.000000 )    20.07707099
 
     27    -0.134E-06     0.0002375250       20.0770709900       2.93  <-- CONV
        O_D=      0.0000000 O_OD=      2.6600708 O_TOT=     20.0770710 <-- SPRD
 Delta: O_D=  0.1265704E-15 O_OD= -0.1344316E-06 O_TOT= -0.1344316E-06 <-- DLTA
 ------------------------------------------------------------------------------
 Cycle:     28
  WF centre and spread    1  ( -0.000000, -0.000000,  0.000000 )     4.05012250
  WF centre and spread    2  ( -0.000000, -0.000000, -0.000000 )     1.25537876
  WF centre and spread    3  ( -0.000000,  0.000000,  0.000000 )     2.53992714
  WF centre and spread    4  ( -0.000000, -0.000000,  0.000000 )     2.53992714
  WF centre and spread    5  ( -0.000000, -0.000000, -0.000000 )     1.25537873
  WF centre and spread    6  ( -0.000000, -0.000000, -0.000000 )     2.53992794
  WF centre and spread    7  (  2.815920,  0.000000, -0.000000 )     1.03466472
  WF centre and spread    8  (  2.815920,  0.000000,  0.000000 )     1.62057994
  WF centre and spread    9  (  2.815920,  0.000000, -0.000000 )     1.62058201
  WF centre and spread   10  (  2.815920, -0.000000, -0.000000 )     1.62058201
  Sum of centres and spreads ( 11.263679, -0.000000,  0.000000 )    20.07707089
 
     28    -0.100E-06     0.0001971083       20.0770708899       2.95  <-- CONV
        O_D=      0.0000000 O_OD=      2.6600707 O_TOT=     20.0770709 <-- SPRD
 Delta: O_D=  0.1827859E-15 O_OD= -0.1001156E-06 O_TOT= -0.1001156E-06 <-- DLTA
 ------------------------------------------------------------------------------

             <<<     Delta < 2.000E-07  over  3 iterations     >>>
             <<< Wannierisation convergence criteria satisfied >>>

 Final State
  WF centre and spread    1  ( -0.000000, -0.000000,  0.000000 )     4.05012250
  WF centre and spread    2  ( -0.000000, -0.000000, -0.000000 )     1.25537876
  WF centre and spread    3  ( -0.000000,  0.000000,  0.000000 )     2.53992714
  WF centre and spread    4  ( -0.000000, -0.000000,  0.000000 )     2.53992714
  WF centre and spread    5  ( -0.000000, -0.000000, -0.000000 )     1.25537873
  WF centre and spread    6  ( -0.000000, -0.000000, -0.000000 )     2.53992794
  WF centre and spread    7  (  2.815920,  0.000000, -0.000000 )     1.03466472
  WF centre and spread    8  (  2.815920,  0.000000,  0.000000 )     1.62057994
  WF centre and spread    9  (  2.815920,  0.000000, -0.000000 )     1.62058201
  WF centre and spread   10  (  2.815920, -0.000000, -0.000000 )     1.62058201
  Sum of centres and spreads ( 11.263679, -0.000000,  0.000000 )    20.07707089
 
         Spreads (Ang^2)       Omega I      =    17.417000240
        ================       Omega D      =     0.000000000
                               Omega OD     =     2.660070650
    Final Spread (Ang^2)       Omega Total  =    20.077070890
 ------------------------------------------------------------------------------
 Time for wannierise            0.524 (sec)

 Writing checkpoint file aiida.chk... done

 *---------------------------------------------------------------------------*
 |                               PLOTTING                                    |
 *---------------------------------------------------------------------------*
 
